# vtk DataFile Version 2.0
VTK from Matlab
ASCII
DATASET STRUCTURED_GRID
DIMENSIONS 5267 1 1
POINTS 5267 float
14.00 50.00 6.00 14.00 37.00 7.00 15.00 37.00 7.00 16.00 37.00 7.00 17.00 37.00 7.00 18.00 37.00 7.00 19.00 37.00 7.00 12.00 38.00 7.00 13.00 38.00 7.00 14.00 38.00 7.00 15.00 38.00 7.00 16.00 38.00 7.00 17.00 38.00 7.00 18.00 38.00 7.00 20.00 38.00 7.00 12.00 39.00 7.00 13.00 39.00 7.00 14.00 39.00 7.00 15.00 39.00 7.00 16.00 39.00 7.00 17.00 39.00 7.00 18.00 39.00 7.00 19.00 39.00 7.00 20.00 39.00 7.00 12.00 40.00 7.00 13.00 40.00 7.00 14.00 40.00 7.00 15.00 40.00 7.00 16.00 40.00 7.00 17.00 40.00 7.00 18.00 40.00 7.00 19.00 40.00 7.00 20.00 40.00 7.00 21.00 40.00 7.00 11.00 41.00 7.00 12.00 41.00 7.00 13.00 41.00 7.00 14.00 41.00 7.00 15.00 41.00 7.00 16.00 41.00 7.00 17.00 41.00 7.00 18.00 41.00 7.00 19.00 41.00 7.00 20.00 41.00 7.00 21.00 41.00 7.00 11.00 42.00 7.00 12.00 42.00 7.00 13.00 42.00 7.00 14.00 42.00 7.00 15.00 42.00 7.00 16.00 42.00 7.00 17.00 42.00 7.00 18.00 42.00 7.00 19.00 42.00 7.00 20.00 42.00 7.00 21.00 42.00 7.00 10.00 43.00 7.00 11.00 43.00 7.00 12.00 43.00 7.00 13.00 43.00 7.00 14.00 43.00 7.00 15.00 43.00 7.00 16.00 43.00 7.00 17.00 43.00 7.00 18.00 43.00 7.00 19.00 43.00 7.00 20.00 43.00 7.00 21.00 43.00 7.00 11.00 44.00 7.00 12.00 44.00 7.00 13.00 44.00 7.00 14.00 44.00 7.00 15.00 44.00 7.00 16.00 44.00 7.00 17.00 44.00 7.00 18.00 44.00 7.00 19.00 44.00 7.00 20.00 44.00 7.00 21.00 44.00 7.00 11.00 45.00 7.00 12.00 45.00 7.00 13.00 45.00 7.00 14.00 45.00 7.00 15.00 45.00 7.00 16.00 45.00 7.00 17.00 45.00 7.00 18.00 45.00 7.00 19.00 45.00 7.00 20.00 45.00 7.00 11.00 46.00 7.00 12.00 46.00 7.00 13.00 46.00 7.00 14.00 46.00 7.00 15.00 46.00 7.00 16.00 46.00 7.00 17.00 46.00 7.00 18.00 46.00 7.00 19.00 46.00 7.00 20.00 46.00 7.00 12.00 47.00 7.00 13.00 47.00 7.00 14.00 47.00 7.00 15.00 47.00 7.00 16.00 47.00 7.00 17.00 47.00 7.00 18.00 47.00 7.00 20.00 47.00 7.00 13.00 48.00 7.00 14.00 48.00 7.00 15.00 48.00 7.00 17.00 48.00 7.00 18.00 48.00 7.00 13.00 49.00 7.00 14.00 49.00 7.00 15.00 49.00 7.00 16.00 49.00 7.00 17.00 49.00 7.00 18.00 49.00 7.00 19.00 49.00 7.00 14.00 50.00 7.00 15.00 50.00 7.00 16.00 50.00 7.00 17.00 50.00 7.00 18.00 50.00 7.00 19.00 50.00 7.00 10.00 22.00 8.00 11.00 22.00 8.00 12.00 22.00 8.00 10.00 23.00 8.00 11.00 23.00 8.00 12.00 23.00 8.00 14.00 23.00 8.00 18.00 23.00 8.00 8.00 24.00 8.00 9.00 24.00 8.00 10.00 24.00 8.00 11.00 24.00 8.00 12.00 24.00 8.00 14.00 24.00 8.00 15.00 24.00 8.00 16.00 24.00 8.00 17.00 24.00 8.00 18.00 24.00 8.00 19.00 24.00 8.00 22.00 24.00 8.00 8.00 25.00 8.00 9.00 25.00 8.00 10.00 25.00 8.00 11.00 25.00 8.00 12.00 25.00 8.00 13.00 25.00 8.00 14.00 25.00 8.00 15.00 25.00 8.00 16.00 25.00 8.00 17.00 25.00 8.00 18.00 25.00 8.00 19.00 25.00 8.00 20.00 25.00 8.00 22.00 25.00 8.00 23.00 25.00 8.00 8.00 26.00 8.00 9.00 26.00 8.00 10.00 26.00 8.00 12.00 26.00 8.00 13.00 26.00 8.00 14.00 26.00 8.00 15.00 26.00 8.00 16.00 26.00 8.00 17.00 26.00 8.00 18.00 26.00 8.00 19.00 26.00 8.00 23.00 26.00 8.00 24.00 26.00 8.00 7.00 27.00 8.00 8.00 27.00 8.00 9.00 27.00 8.00 10.00 27.00 8.00 13.00 27.00 8.00 14.00 27.00 8.00 15.00 27.00 8.00 16.00 27.00 8.00 17.00 27.00 8.00 18.00 27.00 8.00 19.00 27.00 8.00 24.00 27.00 8.00 25.00 27.00 8.00 8.00 28.00 8.00 9.00 28.00 8.00 10.00 28.00 8.00 13.00 28.00 8.00 14.00 28.00 8.00 15.00 28.00 8.00 16.00 28.00 8.00 17.00 28.00 8.00 18.00 28.00 8.00 24.00 28.00 8.00 13.00 29.00 8.00 14.00 29.00 8.00 15.00 29.00 8.00 16.00 29.00 8.00 17.00 29.00 8.00 18.00 29.00 8.00 14.00 30.00 8.00 15.00 30.00 8.00 16.00 30.00 8.00 17.00 30.00 8.00 18.00 30.00 8.00 15.00 31.00 8.00 16.00 31.00 8.00 17.00 31.00 8.00 14.00 36.00 8.00 15.00 36.00 8.00 16.00 36.00 8.00 17.00 36.00 8.00 18.00 36.00 8.00 20.00 36.00 8.00 12.00 37.00 8.00 13.00 37.00 8.00 14.00 37.00 8.00 15.00 37.00 8.00 16.00 37.00 8.00 17.00 37.00 8.00 18.00 37.00 8.00 19.00 37.00 8.00 20.00 37.00 8.00 21.00 37.00 8.00 12.00 38.00 8.00 13.00 38.00 8.00 14.00 38.00 8.00 15.00 38.00 8.00 16.00 38.00 8.00 17.00 38.00 8.00 18.00 38.00 8.00 19.00 38.00 8.00 20.00 38.00 8.00 21.00 38.00 8.00 11.00 39.00 8.00 12.00 39.00 8.00 13.00 39.00 8.00 14.00 39.00 8.00 15.00 39.00 8.00 16.00 39.00 8.00 17.00 39.00 8.00 18.00 39.00 8.00 19.00 39.00 8.00 20.00 39.00 8.00 21.00 39.00 8.00 22.00 39.00 8.00 11.00 40.00 8.00 12.00 40.00 8.00 13.00 40.00 8.00 14.00 40.00 8.00 15.00 40.00 8.00 16.00 40.00 8.00 17.00 40.00 8.00 18.00 40.00 8.00 19.00 40.00 8.00 20.00 40.00 8.00 21.00 40.00 8.00 10.00 41.00 8.00 11.00 41.00 8.00 12.00 41.00 8.00 13.00 41.00 8.00 14.00 41.00 8.00 15.00 41.00 8.00 16.00 41.00 8.00 17.00 41.00 8.00 18.00 41.00 8.00 19.00 41.00 8.00 20.00 41.00 8.00 21.00 41.00 8.00 22.00 41.00 8.00 10.00 42.00 8.00 11.00 42.00 8.00 12.00 42.00 8.00 13.00 42.00 8.00 14.00 42.00 8.00 15.00 42.00 8.00 16.00 42.00 8.00 17.00 42.00 8.00 18.00 42.00 8.00 19.00 42.00 8.00 20.00 42.00 8.00 21.00 42.00 8.00 22.00 42.00 8.00 23.00 42.00 8.00 10.00 43.00 8.00 11.00 43.00 8.00 12.00 43.00 8.00 13.00 43.00 8.00 14.00 43.00 8.00 15.00 43.00 8.00 16.00 43.00 8.00 17.00 43.00 8.00 18.00 43.00 8.00 19.00 43.00 8.00 20.00 43.00 8.00 21.00 43.00 8.00 22.00 43.00 8.00 23.00 43.00 8.00 9.00 44.00 8.00 10.00 44.00 8.00 11.00 44.00 8.00 12.00 44.00 8.00 13.00 44.00 8.00 14.00 44.00 8.00 15.00 44.00 8.00 16.00 44.00 8.00 17.00 44.00 8.00 18.00 44.00 8.00 19.00 44.00 8.00 20.00 44.00 8.00 21.00 44.00 8.00 22.00 44.00 8.00 23.00 44.00 8.00 9.00 45.00 8.00 10.00 45.00 8.00 11.00 45.00 8.00 12.00 45.00 8.00 13.00 45.00 8.00 14.00 45.00 8.00 15.00 45.00 8.00 16.00 45.00 8.00 17.00 45.00 8.00 18.00 45.00 8.00 19.00 45.00 8.00 20.00 45.00 8.00 21.00 45.00 8.00 22.00 45.00 8.00 10.00 46.00 8.00 11.00 46.00 8.00 12.00 46.00 8.00 13.00 46.00 8.00 14.00 46.00 8.00 15.00 46.00 8.00 16.00 46.00 8.00 17.00 46.00 8.00 18.00 46.00 8.00 19.00 46.00 8.00 20.00 46.00 8.00 21.00 46.00 8.00 22.00 46.00 8.00 12.00 47.00 8.00 13.00 47.00 8.00 14.00 47.00 8.00 15.00 47.00 8.00 16.00 47.00 8.00 17.00 47.00 8.00 18.00 47.00 8.00 19.00 47.00 8.00 20.00 47.00 8.00 21.00 47.00 8.00 22.00 47.00 8.00 12.00 48.00 8.00 13.00 48.00 8.00 14.00 48.00 8.00 15.00 48.00 8.00 16.00 48.00 8.00 17.00 48.00 8.00 18.00 48.00 8.00 19.00 48.00 8.00 20.00 48.00 8.00 21.00 48.00 8.00 13.00 49.00 8.00 14.00 49.00 8.00 15.00 49.00 8.00 16.00 49.00 8.00 17.00 49.00 8.00 18.00 49.00 8.00 19.00 49.00 8.00 20.00 49.00 8.00 13.00 50.00 8.00 14.00 50.00 8.00 15.00 50.00 8.00 16.00 50.00 8.00 17.00 50.00 8.00 18.00 50.00 8.00 19.00 50.00 8.00 15.00 18.00 9.00 16.00 18.00 9.00 12.00 19.00 9.00 13.00 19.00 9.00 14.00 19.00 9.00 15.00 19.00 9.00 16.00 19.00 9.00 17.00 19.00 9.00 11.00 20.00 9.00 12.00 20.00 9.00 13.00 20.00 9.00 14.00 20.00 9.00 15.00 20.00 9.00 16.00 20.00 9.00 17.00 20.00 9.00 18.00 20.00 9.00 19.00 20.00 9.00 20.00 20.00 9.00 21.00 20.00 9.00 10.00 21.00 9.00 11.00 21.00 9.00 12.00 21.00 9.00 13.00 21.00 9.00 14.00 21.00 9.00 15.00 21.00 9.00 16.00 21.00 9.00 17.00 21.00 9.00 18.00 21.00 9.00 19.00 21.00 9.00 20.00 21.00 9.00 21.00 21.00 9.00 22.00 21.00 9.00 10.00 22.00 9.00 11.00 22.00 9.00 12.00 22.00 9.00 13.00 22.00 9.00 14.00 22.00 9.00 15.00 22.00 9.00 16.00 22.00 9.00 17.00 22.00 9.00 18.00 22.00 9.00 19.00 22.00 9.00 20.00 22.00 9.00 21.00 22.00 9.00 22.00 22.00 9.00 8.00 23.00 9.00 9.00 23.00 9.00 10.00 23.00 9.00 11.00 23.00 9.00 12.00 23.00 9.00 13.00 23.00 9.00 14.00 23.00 9.00 15.00 23.00 9.00 16.00 23.00 9.00 17.00 23.00 9.00 18.00 23.00 9.00 19.00 23.00 9.00 20.00 23.00 9.00 21.00 23.00 9.00 22.00 23.00 9.00 23.00 23.00 9.00 8.00 24.00 9.00 9.00 24.00 9.00 10.00 24.00 9.00 11.00 24.00 9.00 12.00 24.00 9.00 13.00 24.00 9.00 14.00 24.00 9.00 15.00 24.00 9.00 16.00 24.00 9.00 17.00 24.00 9.00 18.00 24.00 9.00 19.00 24.00 9.00 20.00 24.00 9.00 21.00 24.00 9.00 22.00 24.00 9.00 23.00 24.00 9.00 24.00 24.00 9.00 8.00 25.00 9.00 9.00 25.00 9.00 10.00 25.00 9.00 11.00 25.00 9.00 12.00 25.00 9.00 13.00 25.00 9.00 14.00 25.00 9.00 15.00 25.00 9.00 16.00 25.00 9.00 17.00 25.00 9.00 18.00 25.00 9.00 19.00 25.00 9.00 20.00 25.00 9.00 21.00 25.00 9.00 22.00 25.00 9.00 23.00 25.00 9.00 24.00 25.00 9.00 25.00 25.00 9.00 7.00 26.00 9.00 8.00 26.00 9.00 9.00 26.00 9.00 10.00 26.00 9.00 11.00 26.00 9.00 12.00 26.00 9.00 13.00 26.00 9.00 14.00 26.00 9.00 15.00 26.00 9.00 16.00 26.00 9.00 17.00 26.00 9.00 18.00 26.00 9.00 19.00 26.00 9.00 20.00 26.00 9.00 21.00 26.00 9.00 22.00 26.00 9.00 23.00 26.00 9.00 24.00 26.00 9.00 25.00 26.00 9.00 8.00 27.00 9.00 9.00 27.00 9.00 10.00 27.00 9.00 11.00 27.00 9.00 12.00 27.00 9.00 13.00 27.00 9.00 14.00 27.00 9.00 15.00 27.00 9.00 16.00 27.00 9.00 17.00 27.00 9.00 18.00 27.00 9.00 19.00 27.00 9.00 20.00 27.00 9.00 21.00 27.00 9.00 22.00 27.00 9.00 23.00 27.00 9.00 24.00 27.00 9.00 25.00 27.00 9.00 7.00 28.00 9.00 9.00 28.00 9.00 10.00 28.00 9.00 11.00 28.00 9.00 12.00 28.00 9.00 13.00 28.00 9.00 14.00 28.00 9.00 15.00 28.00 9.00 16.00 28.00 9.00 17.00 28.00 9.00 18.00 28.00 9.00 19.00 28.00 9.00 20.00 28.00 9.00 22.00 28.00 9.00 23.00 28.00 9.00 24.00 28.00 9.00 25.00 28.00 9.00 8.00 29.00 9.00 9.00 29.00 9.00 10.00 29.00 9.00 12.00 29.00 9.00 13.00 29.00 9.00 14.00 29.00 9.00 15.00 29.00 9.00 16.00 29.00 9.00 17.00 29.00 9.00 18.00 29.00 9.00 19.00 29.00 9.00 20.00 29.00 9.00 23.00 29.00 9.00 24.00 29.00 9.00 25.00 29.00 9.00 10.00 30.00 9.00 12.00 30.00 9.00 13.00 30.00 9.00 14.00 30.00 9.00 15.00 30.00 9.00 16.00 30.00 9.00 17.00 30.00 9.00 18.00 30.00 9.00 19.00 30.00 9.00 20.00 30.00 9.00 23.00 30.00 9.00 13.00 31.00 9.00 14.00 31.00 9.00 15.00 31.00 9.00 16.00 31.00 9.00 17.00 31.00 9.00 18.00 31.00 9.00 19.00 31.00 9.00 20.00 31.00 9.00 13.00 32.00 9.00 14.00 32.00 9.00 15.00 32.00 9.00 16.00 32.00 9.00 17.00 32.00 9.00 18.00 32.00 9.00 19.00 32.00 9.00 14.00 35.00 9.00 15.00 35.00 9.00 16.00 35.00 9.00 17.00 35.00 9.00 18.00 35.00 9.00 19.00 35.00 9.00 12.00 36.00 9.00 13.00 36.00 9.00 14.00 36.00 9.00 15.00 36.00 9.00 16.00 36.00 9.00 17.00 36.00 9.00 18.00 36.00 9.00 19.00 36.00 9.00 20.00 
[...]
POINT_DATA 5267
VECTORS vector_field float
0.48 -0.78 -2.21 -3.69 -3.46 10.51 -0.13 -1.71 6.61 0.95 -1.31 6.99 2.66 -1.99 5.42 4.75 -2.29 7.26 3.83 -2.38 7.72 -8.47 -3.97 1.83 -3.89 -3.05 10.56 -4.00 -3.72 9.72 -0.19 -0.46 7.92 0.33 -0.42 7.83 0.45 -0.75 7.53 0.95 -1.74 6.63 2.14 -3.30 9.93 -8.19 -3.36 2.55 -7.11 -3.87 3.43 -1.40 -2.03 5.43 -0.03 -0.44 8.15 0.12 -0.53 8.12 0.19 -0.78 7.43 -0.10 -0.82 7.48 2.19 -3.01 5.38 3.05 -4.13 7.05 -6.69 -4.56 2.94 -4.07 -4.57 3.49 -0.63 -1.88 6.44 -0.21 -1.18 7.91 -0.06 -0.87 8.98 -0.10 -1.15 7.60 -0.18 -1.35 7.03 0.98 -2.33 4.22 6.50 -4.36 3.17 6.41 -4.03 4.14 -3.33 0.06 -3.47 -4.96 -5.25 2.69 -1.41 -3.03 3.99 0.11 -2.07 6.79 -0.04 -1.76 7.79 -0.05 -1.61 8.44 -0.44 -1.71 7.62 -0.61 -1.92 6.98 -0.24 -2.31 5.75 4.55 -2.29 1.73 5.46 -2.89 -1.03 -5.16 -0.84 -3.57 -5.45 -6.03 -0.29 -0.09 -2.93 4.77 0.43 -2.58 6.16 0.19 -2.37 6.85 -0.03 -2.31 6.89 -0.40 -2.46 6.32 -0.93 -2.49 6.35 0.36 -2.79 4.38 6.50 -7.35 -3.71 5.15 -7.32 -4.06 -4.77 -0.53 -4.06 -5.55 -2.03 -4.55 -4.16 -2.89 -2.70 -1.44 -2.73 1.75 -0.05 -2.95 5.09 0.19 -2.91 5.11 -0.04 -2.94 5.51 -0.34 -3.03 5.32 -0.47 -3.07 5.18 0.67 -3.04 3.42 5.85 -8.82 -3.85 5.23 -8.54 -4.04 -4.91 -2.70 -5.17 -5.32 -2.96 -2.00 -4.26 -3.58 -0.46 -0.17 -2.93 3.63 0.45 -2.52 0.76 0.90 -2.84 1.52 2.53 -2.60 0.23 1.46 -2.86 0.66 2.31 -2.66 1.01 8.73 -3.54 0.71 6.48 -7.93 -3.83 -4.55 -4.30 -1.14 -5.39 -4.31 -1.64 -4.10 -3.65 -0.14 -5.29 -4.35 0.33 -0.82 -3.09 0.21 2.14 -2.64 0.37 0.86 -3.26 1.41 1.22 -3.27 1.15 5.17 -3.31 0.22 3.85 -2.22 -0.24 -3.97 -4.35 -1.13 -4.04 -4.22 -0.23 -1.60 -3.36 -0.28 -2.80 -4.76 0.13 -0.84 -3.34 0.30 1.27 -3.02 -0.05 2.87 -3.58 0.32 4.16 -3.68 0.43 2.96 -2.89 -0.30 2.81 -2.57 -0.12 -1.17 -3.10 -0.13 -2.18 -3.97 -0.16 -2.72 -4.39 0.05 -2.54 -4.15 0.16 0.93 -3.04 -0.37 3.28 -3.55 -0.14 4.23 -3.67 0.05 2.57 -2.55 0.05 -1.81 -1.90 -0.37 -2.20 -2.22 -0.52 -1.36 -2.13 -0.88 1.92 -1.88 -0.58 1.55 -1.59 -1.03 -1.97 -0.22 -0.34 -0.78 -2.45 -1.07 0.49 -1.80 -1.24 1.53 -1.99 -0.94 2.01 -1.86 -1.18 1.48 -1.40 -1.48 0.71 -0.95 -1.65 -0.43 -2.62 -1.69 0.40 -1.09 -1.88 0.52 -1.01 -1.95 1.09 -1.89 -1.86 1.88 -1.26 -1.49 1.61 -1.40 -1.38 -2.21 -0.99 1.81 -3.00 -1.26 1.64 -3.98 -1.70 1.96 -2.85 -2.00 2.13 -3.28 -1.99 1.91 -4.00 -2.14 1.66 -5.99 -3.37 2.89 7.54 -3.32 5.86 -1.98 -0.40 1.76 -2.98 -0.81 2.01 -3.16 -2.71 2.24 -3.92 -2.98 2.17 -4.53 -2.99 2.03 -6.02 -4.39 6.12 -6.98 -5.73 5.20 -0.25 -8.85 6.36 7.69 -4.87 5.98 8.00 -3.49 5.53 7.00 -3.14 5.33 4.90 -1.67 5.21 -2.00 -0.09 0.85 -2.99 -0.05 0.61 -3.99 -1.08 1.61 -4.98 -2.44 2.39 -5.16 -3.73 2.26 -5.95 -3.94 2.18 -6.66 -5.45 5.64 -4.75 -8.34 5.08 4.79 -6.74 4.78 8.91 -4.80 6.80 8.88 -3.07 6.90 7.98 -2.81 6.65 6.84 -2.87 5.50 5.87 -0.56 5.28 3.99 -0.92 4.01 -1.99 0.05 -0.26 -2.47 1.18 -1.89 -3.52 0.11 -0.82 -6.13 -2.60 2.38 -6.54 -4.37 2.50 -6.92 -5.57 2.83 -2.09 -8.01 5.31 7.83 -6.58 4.59 9.85 -3.80 7.01 8.96 -3.55 6.18 8.43 -2.69 5.52 3.99 0.03 2.38 2.91 0.22 1.90 -0.76 0.86 -2.01 -1.43 1.01 -2.45 -2.37 1.05 -2.48 -3.39 0.88 -2.37 -7.25 -3.76 3.09 -7.09 -5.88 2.56 -2.65 -8.07 3.32 8.80 -6.32 4.52 9.88 -4.74 6.13 9.87 -3.26 6.04 8.92 -2.08 5.90 1.96 0.66 -0.62 1.89 0.15 0.81 -1.34 0.11 -2.38 -2.26 0.16 -2.27 -3.25 0.19 -2.24 -7.74 -2.69 1.79 -8.18 -4.71 2.70 -7.96 -7.30 3.17 4.73 -4.88 2.06 9.82 -5.49 5.24 9.83 -3.58 6.53 2.60 1.28 -1.32 -6.37 -1.24 -2.17 -7.39 -2.15 -1.53 -8.76 -6.86 3.11 3.23 -3.47 2.84 9.78 -5.59 4.91 9.59 -3.98 6.08 -7.75 -3.19 -0.62 -5.86 -4.31 -1.08 5.90 -5.97 1.72 8.43 -5.69 4.20 9.28 -4.42 5.12 -2.03 -1.05 0.93 3.11 -1.82 0.83 6.70 -4.70 1.33 -4.06 -2.17 8.55 -2.78 -1.54 5.42 -0.39 -1.03 7.64 0.00 -1.28 7.47 4.61 -1.67 6.49 1.03 -3.31 12.29 -0.59 -2.39 12.10 -2.30 -2.36 11.57 -3.81 -3.77 9.79 0.35 1.04 8.50 0.01 1.50 8.84 -0.13 1.16 8.69 0.19 -1.36 7.51 2.85 -2.16 8.83 0.44 -3.13 12.33 7.78 -3.20 2.14 -2.95 -3.01 10.63 -2.80 -2.98 10.89 -0.14 -0.39 8.08 0.37 0.75 8.49 -0.04 0.80 8.66 -0.48 0.75 8.60 -0.85 0.59 8.50 -0.76 -0.33 8.35 1.57 -2.95 11.34 7.82 -4.13 2.40 -6.47 -3.91 4.04 -3.69 -2.99 8.56 0.54 -0.79 8.29 0.57 -0.21 8.18 0.32 0.08 8.45 -0.08 0.06 8.61 -0.53 0.01 8.46 -1.05 -0.06 8.34 -1.27 -0.32 8.36 2.62 -2.64 9.58 7.10 -3.81 3.15 7.20 -3.58 2.35 -6.02 -3.87 5.56 0.79 -1.48 8.29 0.88 -1.01 8.00 0.63 -0.78 8.25 0.20 -0.69 8.42 -0.09 -0.70 8.56 -0.52 -0.69 8.37 -0.98 -0.72 8.11 -1.10 -0.84 7.97 -0.51 -1.39 7.37 6.24 -3.90 4.54 -3.95 -0.35 -4.43 -5.76 -3.95 5.38 1.19 -1.71 8.22 0.87 -1.59 7.93 0.62 -1.52 8.06 0.19 -1.50 8.21 -0.03 -1.49 8.37 -0.58 -1.46 8.28 -1.15 -1.43 7.97 -1.27 -1.34 7.85 -0.59 -1.54 6.77 6.64 -3.40 3.70 7.47 -1.65 3.22 -7.64 -4.85 0.29 -5.19 -3.72 5.44 0.38 -2.65 7.35 0.89 -2.37 7.48 0.61 -2.31 7.57 0.25 -2.30 7.74 0.01 -2.33 7.96 -0.60 -2.29 7.95 -1.27 -2.23 7.75 -1.24 -1.89 7.13 -0.26 -2.24 5.86 5.82 -3.96 2.72 3.69 -7.79 -4.23 4.47 -6.04 -4.73 -6.69 -4.81 0.80 -4.94 -4.41 4.01 -0.04 -3.25 5.15 0.91 -3.15 6.75 0.63 -3.00 6.71 0.33 -2.93 6.90 -0.02 -2.98 7.19 -0.64 -2.98 7.22 -1.21 -2.83 6.82 -0.98 -2.78 5.47 0.12 -3.14 4.26 5.09 -8.81 -5.04 4.22 -8.06 -4.82 3.04 -8.79 -4.99 -8.00 -3.46 -2.66 -4.71 -3.16 -4.13 -5.03 -5.52 -2.30 -0.38 -3.55 3.28 0.35 -3.54 4.89 0.42 -3.38 5.30 0.20 -3.30 5.28 -0.20 -3.27 5.44 -0.46 -3.35 5.27 -0.58 -3.46 4.93 -0.52 -3.65 4.53 0.36 -3.51 3.39 5.41 -9.04 -4.84 5.00 -8.31 -4.82 5.56 0.39 1.97 -2.48 0.44 -0.93 -5.78 -4.99 0.87 -5.85 -4.82 0.22 -2.23 -3.59 0.44 -0.27 -3.93 3.21 -0.31 -3.74 3.61 0.10 -3.64 3.56 -0.22 -3.70 3.75 -0.48 -3.73 3.62 -0.01 -3.96 3.52 0.22 -3.92 3.00 1.02 -3.38 1.96 6.55 -9.04 -4.64 3.50 -10.75 -4.25 -3.94 -3.76 -0.34 -5.21 -4.85 0.34 -5.19 -5.41 0.25 -0.43 -3.94 1.89 -0.02 -4.04 2.71 0.17 -3.69 2.16 -0.01 -3.74 2.38 0.04 -3.68 2.31 0.83 -4.08 2.07 1.70 -3.70 1.05 4.52 -3.37 -0.04 7.77 -3.23 -1.36 6.15 -4.29 -0.06 -3.58 -4.65 -0.67 -0.68 -3.36 0.52 0.10 -3.79 1.27 0.12 -3.65 1.08 0.82 -3.58 0.79 1.41 -3.96 0.13 3.08 -3.81 -0.17 4.06 -3.83 -0.01 4.33 -3.67 -0.33 4.75 -4.98 0.52 3.13 -2.81 1.61 -1.87 0.01 -1.11 -2.30 -3.42 -0.77 -0.92 -2.64 0.42 -0.89 -3.32 -1.01 1.67 -2.68 -0.42 4.45 -4.44 -0.53 4.54 -4.60 -0.46 3.64 -3.19 -0.39 2.62 -2.50 -0.50 1.73 -1.40 0.08 -2.54 -0.90 -1.07 -0.89 -2.55 -1.55 -0.77 -2.74 -1.95 1.06 -2.34 -1.69 2.86 -2.46 -1.72 1.91 -1.78 -1.94 2.08 -1.87 -1.48 1.98 0.04 -1.09 -1.93 -0.30 -0.88 -0.70 -3.33 -2.23 0.16 -2.66 -2.35 1.44 -2.90 -1.94 1.69 -2.92 -2.04 1.82 -2.00 -1.91 1.88 0.04 -1.43 -3.33 -3.76 5.93 2.69 -3.93 10.23 -2.41 0.08 0.96 -3.98 -0.15 1.80 -5.94 -0.81 3.76 -5.97 -2.31 4.14 1.67 -5.60 10.69 4.10 -3.79 5.84 -2.00 -0.13 0.92 -3.77 -0.58 1.50 -4.39 -0.83 1.51 -6.11 -1.58 3.96 -5.78 -3.37 5.57 -3.10 -6.38 10.28 5.35 -3.55 5.46 5.94 -1.42 2.77 5.14 -0.97 2.75 4.32 -0.94 2.83 3.39 -0.74 2.61 -2.00 -0.40 0.79 -2.96 -0.98 1.26 -3.90 -1.24 1.42 -4.92 -1.34 1.50 -6.33 -2.34 4.48 -5.81 -3.66 6.36 -2.60 -7.42 10.43 6.51 -3.32 6.38 6.00 -2.00 2.78 5.66 -1.95 3.27 4.68 -1.90 3.13 3.94 -1.70 3.31 3.79 -0.90 5.00 -2.11 -1.00 0.91 -3.00 -1.26 0.97 -4.56 -1.87 1.54 -5.11 -1.99 1.85 -6.40 -3.03 3.95 -4.89 -4.16 6.96 -4.81 -6.01 8.41 6.54 -3.49 6.79 6.89 -3.07 3.87 6.50 -2.44 4.92 5.87 -2.02 5.31 4.98 -1.82 4.73 4.00 -1.51 4.44 -1.24 -1.56 1.25 -2.04 -1.90 1.24 -2.94 -2.03 1.22 -3.82 -2.14 1.21 -4.97 -2.33 1.46 -5.83 -1.68 5.35 -5.70 -3.26 5.17 -4.49 -4.60 6.96 -4.39 -5.02 7.51 5.27 -4.11 6.42 7.65 -2.57 6.85 6.99 -2.71 4.70 6.00 -2.41 4.45 5.00 -2.07 4.31 4.89 -1.12 5.79 3.78 -0.81 4.11 -2.29 -0.54 1.69 -3.13 -0.84 1.74 -3.99 -1.76 1.96 -4.19 -2.92 1.67 -6.03 -2.80 3.90 -4.74 -1.72 5.00 -4.73 -2.96 5.53 -4.86 -4.84 6.05 -2.89 -5.80 6.92 4.08 -2.35 6.39 4.96 -1.97 6.37 7.84 -0.23 7.74 6.99 -1.55 6.26 5.98 -1.86 5.67 4.98 -1.10 4.27 4.38 -0.63 3.93 3.00 -0.68 3.08 -2.60 -0.34 1.52 -3.62 -1.17 2.47 -4.30 -0.93 3.42 -4.88 -1.19 3.75 -4.65 -1.63 4.41 -4.64 -1.92 4.75 -3.67 -2.29 5.52 -2.54 -4.03 5.51 0.46 -0.48 6.68 2.18 -0.65 6.71 3.64 -1.37 6.17 5.08 -1.38 6.25 5.76 -0.70 6.26 6.45 -0.32 6.19 5.95 -0.31 5.00 4.91 -0.13 4.70 3.18 -0.30 3.25 1.99 -0.21 2.72 -1.91 -0.38 0.78 -2.95 -0.29 1.20 -3.57 -0.66 2.27 -3.99 -1.12 2.88 -4.79 -1.49 3.34 -4.63 -1.92 4.07 -4.40 -2.12 4.74 -2.95 -1.91 5.71 -1.04 -1.47 6.60 0.34 -0.94 6.77 1.32 -1.10 6.53 3.05 -1.51 6.19 5.19 -1.75 5.98 6.40 -1.20 5.71 6.60 -0.68 5.10 5.85 -0.53 4.17 4.84 -0.36 3.79 3.58 -0.22 2.87 1.98 0.19 1.23 -2.95 -0.61 0.92 -3.87 -0.89 1.72 -4.71 -1.03 2.31 -5.48 -1.30 2.52 -5.05 -2.01 3.60 -4.32 -2.35 4.78 -1.84 -1.92 6.47 0.54 -1.20 7.53 0.06 -1.03 7.52 0.34 -1.11 7.60 2.34 -1.73 6.54 4.86 -2.23 5.70 6.90 -1.57 5.10 6.91 -1.03 4.05 5.86 -0.62 3.12 4.77 -0.48 2.93 2.99 -0.16 1.64 1.99 -0.06 1.35 -1.99 0.13 -0.30 -3.93 -0.70 0.56 -4.91 -0.75 0.61 -5.91 -1.32 1.26 -5.75 -2.18 3.11 -5.19 -2.95 4.26 -1.61 -2.23 6.70 0.63 -1.92 7.52 -0.22 -1.91 7.35 0.09 -1.80 7.66 2.10 -2.27 6.81 6.14 -2.73 5.45 7.88 -1.97 4.46 4.99 0.37 -0.03 3.81 0.53 -0.81 3.08 0.07 0.72 2.02 0.02 0.78 -2.67 0.31 -1.40 -3.37 0.39 -1.80 -3.23 -0.78 -3.20 -6.77 -2.18 1.83 -5.89 -3.30 3.77 -5.35 -3.61 4.56 0.45 -2.61 7.45 -0.14 -2.44 7.10 0.51 -2.68 7.51 4.14 -3.12 5.74 7.52 -3.02 4.79 7.95 -1.56 2.78 3.73 0.55 -1.92 2.84 0.30 -1.42 1.99 -0.03 -0.17 -3.07 -1.69 -3.39 -5.53 -1.57 -2.86 -6.64 -3.62 3.11 -2.26 -2.95 5.90 -1.06 -2.52 6.77 0.73 -2.71 6.85 4.64 -3.40 5.20 8.24 -3.74 4.54 8.89 -2.98 3.78 6.43 -0.37 -2.75 3.72 -0.39 -1.61 -7.67 -3.33 2.11 -6.83 -3.61 2.30 -2.56 -0.33 4.20 2.74 -1.77 5.64 4.55 -3.47 4.50 7.35 -3.79 3.36 8.49 -2.75 3.56 7.65 -1.30 0.28 -7.75 -1.96 0.04 -6.03 -0.88 4.17 -2.38 0.12 4.17 4.97 -0.08 3.76 7.24 -1.61 3.06 8.05 -1.53 2.84 4.02 0.04 -3.47 -4.31 -2.25 9.02 -2.21 -0.94 5.98 0.10 -0.64 6.75 2.21 -1.11 5.99 4.73 -1.31 5.80 4.19 -1.89 7.95 -0.81 -1.18 11.65 -1.03 -2.39 11.31 -3.75 -2.97 8.99 -0.39 -0.86 7.23 -0.14 0.38 7.69 -0.35 -0.15 7.42 -0.39 -0.69 7.59 2.30 -2.65 9.94 0.65 -3.52 11.52 -1.03 1.01 11.06 -2.12 -0.91 10.44 0.57 1.07 7.71 0.53 1.61 7.80 -0.03 1.71 7.89 -0.58 1.71 7.90 -1.15 1.64 7.89 -1.71 1.56 7.98 0.17 -1.87 11.37 0.12 0.50 10.47 1.52 0.22 9.10 1.36 0.57 8.04 0.78 0.69 7.54 0.46 0.86 7.60 -0.05 0.86 7.69 -0.54 0.84 7.67 -1.14 0.84 7.70 -1.71 0.81 7.82 0.46 -0.12 7.72 5.65 -1.69 5.84 6.82 -3.75 1.87 -5.34 -3.24 5.84 0.83 -0.24 9.88 1.95 0.08 8.33 1.31 0.02 7.51 0.77 0.04 7.44 0.39 0.09 7.52 -0.06 0.06 7.64 -0.50 0.05 7.51 -1.09 0.05 7.52 -1.73 0.09 7.70 -2.19 0.13 7.89 2.39 -0.80 7.75 7.53 -3.34 1.51 -4.92 -2.44 6.17 1.17 -1.05 8.49 1.70 -0.73 7.70 1.09 -0.73 7.23 0.68 -0.71 7.34 0.29 -0.68 7.47 -0.02 -0.69 7.60 -0.45 -0.65 7.37 -0.88 -0.64 7.28 -1.32 -0.64 7.52 -1.91 -0.56 7.83 -1.45 -0.65 8.03 6.32 -2.65 3.16 -4.69 -1.81 6.44 1.31 -1.68 7.92 1.43 -1.50 7.49 0.90 -1.52 6.98 0.63 -1.50 7.10 0.26 -1.50 7.26 0.06 -1.48 7.41 -0.49 -1.42 7.26 -0.98 -1.34 7.08 -1.23 -1.33 7.39 -1.67 -1.25 7.74 -0.87 -1.21 7.68 6.59 -1.43 2.84 7.07 -1.05 2.56 -4.16 -2.56 6.17 1.17 -2.47 7.44 1.21 -2.40 7.14 0.86 -2.36 6.62 0.62 -2.31 6.68 0.30 -2.32 6.86 0.10 -2.32 7.06 -0.52 -2.27 7.00 -1.14 -2.20 6.87 -1.26 -2.08 7.14 -1.41 -2.05 7.43 -0.27 -1.92 7.07 5.34 -3.00 3.16 7.87 -1.19 2.53 -3.71 -3.29 4.99 0.37 -3.19 5.15 1.14 -3.29 6.54 0.91 -3.19 6.18 0.66 -3.09 6.15 0.38 -3.06 6.34 0.06 -3.11 6.56 -0.58 -3.09 6.62 -1.21 -3.04 6.55 -1.28 -2.73 6.51 -1.19 -2.74 6.40 -1.04 -2.78 6.90 0.01 -2.42 4.48 7.95 -2.11 2.26 -3.46 -4.27 4.41 0.03 -3.66 2.78 0.97 -3.79 5.12 0.89 -3.83 5.30 0.56 -3.70 5.28 0.30 -3.53 5.39 -0.05 -3.44 5.57 -0.56 -3.45 5.57 -0.91 -3.35 5.20 -0.96 -3.35 4.72 -0.72 -3.53 4.58 -0.30 -3.43 4.39 6.36 -2.51 2.62 3.32 1.92 0.03 2.09 1.99 -0.23 -3.45 0.88 -0.98 -6.08 -5.20 0.84 -3.85 -4.27 -0.07 0.26 -4.33 2.97 0.33 -4.16 3.58 0.16 -3.97 3.76 0.09 -3.88 3.79 -0.27 -3.87 3.84 -0.40 -3.93 3.77 -0.16 -4.10 3.67 -0.17 -4.16 3.41 0.43 -4.12 2.62 0.96 -3.26 1.59 6.25 -3.39 2.59 3.78 0.62 0.40 2.12 0.98 -0.45 -5.77 -5.36 0.35 -6.41 -5.59 0.12 -0.27 -3.84 1.38 -0.13 -4.39 2.28 -0.18 -4.29 2.62 0.08 -4.03 2.48 -0.26 -4.12 2.57 -0.42 -4.23 2.52 0.11 -4.49 2.47 0.40 -4.53 2.14 1.26 -3.91 1.28 3.70 -2.97 0.56 5.73 -2.95 1.10 -5.63 -5.74 -0.41 -1.93 -3.80 -0.86 -0.17 -3.94 0.85 0.03 -4.14 1.51 0.17 -4.08 1.17 0.31 -4.03 0.91 0.38 -4.07 0.89 1.14 -4.34 0.71 2.25 -4.05 -0.27 3.35 -3.71 -0.23 4.45 -4.20 0.82 -1.66 -3.03 -1.52 -1.61 -3.34 -0.51 -0.76 -3.73 0.40 0.27 -4.30 0.41 0.94 -4.19 0.26 1.76 -4.43 0.07 3.39 -4.47 -0.62 4.32 -4.46 -0.96 4.42 -4.29 -0.26 -1.77 -1.10 -1.26 -2.51 -2.55 -1.40 -1.99 -2.76 -0.67 -0.19 -3.70 -0.89 1.02 -2.97 -0.43 4.32 -5.00 -1.61 4.33 -5.23 -1.42 3.83 -4.03 -0.90 2.00 0.11 -0.81 -1.94 -0.04 -1.41 2.00 -1.86 1.19 -1.00 -1.89 0.95 -4.77 -1.75 9.43 3.42 -2.39 6.30 -4.90 -0.04 2.62 -3.97 -2.43 5.58 -5.10 -2.61 9.28 4.88 -1.75 6.95 3.56 -1.55 4.34 -3.41 0.20 2.09 -4.68 -0.20 2.57 -5.83 -0.40 2.99 -5.49 -1.97 5.11 -4.60 -3.66 9.61 5.78 -1.95 6.27 5.00 -0.97 3.47 4.90 -0.26 3.46 -2.21 0.03 0.90 -3.82 -0.19 1.86 -4.93 -0.66 2.59 -6.04 -0.90 3.16 -5.90 -2.04 5.30 -3.12 -5.47 9.65 6.06 -1.63 6.25 6.72 -1.04 5.15 5.18 -0.50 2.29 4.00 -0.09 1.77 -1.94 -0.61 0.76 -2.99 -0.70 1.12 -4.02 -0.92 1.73 -5.24 -1.25 2.89 -6.26 -1.52 4.06 -4.66 -1.79 6.17 -4.87 -5.52 9.12 5.90 -1.85 6.32 6.96 -1.51 5.11 5.93 -1.18 3.10 4.86 -1.05 2.76 3.72 -0.99 2.47 2.51 -0.81 1.79 -2.66 -0.91 0.75 -3.55 -1.44 1.77 -4.44 -1.76 3.85 -5.38 -1.90 3.86 -5.63 -1.65 4.32 -4.13 -1.86 6.20 -5.20 -6.05 8.29 5.36 -2.44 6.34 5.63 -1.20 5.81 6.42 -1.78 5.30 5.61 -1.54 4.75 4.66 -1.41 4.46 3.80 -1.03 4.15 2.99 -0.74 3.59 -1.82 -1.21 0.25 -3.00 -1.22 0.86 -4.36 -1.79 3.23 -3.77 -0.81 4.17 -4.53 -1.01 4.23 -4.86 -1.45 4.47 -3.50 -1.87 6.11 -2.31 -3.56 8.50 4.58 -2.34 6.10 4.52 -1.00 5.59 5.99 -0.68 5.97 5.99 -1.49 3.81 4.99 -1.70 3.73 4.00 -1.44 3.45 3.70 -0.45 4.55 -1.40 -1.83 0.66 -2.31 -1.86 0.64 -3.83 -2.23 1.72 -3.19 -0.86 4.06 -3.76 -0.97 4.10 -4.29 -1.06 4.20 -4.05 -1.37 4.67 -2.12 -1.20 5.90 -1.10 -1.39 6.49 2.37 -0.40 6.15 3.37 -0.55 5.45 4.31 -0.98 5.47 6.51 0.87 6.56 5.97 -0.17 5.77 4.98 -0.90 4.84 3.97 -0.58 4.25 2.96 -0.43 3.39 -2.43 -0.17 2.25 -3.12 -0.16 2.69 -3.07 -0.52 3.17 -3.39 -0.87 3.59 -3.83 -1.18 3.79 -3.95 -1.22 4.02 -2.87 -0.82 4.78 -1.32 0.01 6.00 0.02 1.38 6.83 1.19 0.87 6.41 2.29 -0.09 5.56 3.64 -0.79 5.14 4.43 -0.58 5.45 4.11 -0.22 5.44 5.28 0.63 5.68 4.98 0.03 3.90 3.95 -0.02 3.67 2.90 0.03 3.42 -1.47 -0.27 1.59 -2.23 -0.41 2.01 -2.61 -0.67 2.51 -2.93 -0.93 2.85 -3.36 -1.11 3.34 -3.78 -1.29 3.63 -3.70 -1.43 3.98 -2.58 -0.85 4.90 -0.41 0.04 6.48 0.26 0.72 6.79 0.51 0.55 6.72 1.17 -0.04 5.89 2.46 -0.71 5.14 3.91 -0.96 5.05 4.27 -0.72 5.13 5.16 0.02 4.61 4.84 0.23 4.03 3.87 0.34 3.54 2.19 -0.11 2.26 -1.73 -0.22 1.01 -2.26 -0.47 1.66 -2.66 -0.79 2.14 -3.02 -1.05 2.62 -3.37 -1.34 3.16 -3.62 -1.43 3.64 -2.73 -1.34 4.53 -1.26 -0.82 5.77 0.40 -0.32 6.56 0.33 -0.05 6.69 0.25 -0.08 6.74 0.64 -0.44 6.32 1.42 -0.78 5.55 3.77 -1.33 4.75 4.48 -1.04 4.56 4.69 -0.60 4.12 4.86 -0.28 3.65 3.93 0.09 2.90 2.93 0.19 2.45 -1.92 -0.39 0.77 -2.61 -0.83 1.45 -2.95 -1.06 1.93 -3.17 -1.34 2.58 -3.61 -1.58 2.98 -3.36 -1.66 3.82 -2.20 -1.36 5.14 0.20 -1.09 6.30 0.73 -0.95 6.58 0.36 -0.84 6.66 -0.15 -0.84 6.70 0.05 -0.98 6.63 0.91 -1.29 5.93 3.16 -1.57 4.64 4.62 -1.44 4.18 5.09 -1.15 3.86 4.87 -0.70 3.33 3.92 -0.31 2.76 2.93 -0.12 2.27 -2.75 -1.16 1.22 -3.13 -1.55 1.90 -3.60 -1.79 2.35 -4.08 -1.96 2.73 -3.85 -2.08 3.66 -1.84 -1.82 5.54 0.29 -1.62 6.35 0.51 -1.69 6.52 0.21 -1.58 6.61 -0.21 -1.66 6.65 -0.19 -1.79 6.64 0.81 -1.93 6.15 3.58 -2.00 4.51 5.45 -1.78 3.76 5.76 -1.48 3.41 4.88 -1.07 2.92 3.97 -0.63 2.03 2.95 -0.25 1.39 1.84 -0.18 1.08 -2.14 -0.84 -0.32 -3.69 -1.91 1.64 -4.14 -2.26 2.01 -4.62 -2.46 2.47 -4.65 -2.65 3.26 -1.75 -2.43 5.74 -0.19 -2.03 6.41 0.45 -2.38 6.49 0.15 -2.36 6.55 -0.14 -2.48 6.60 0.18 -2.53 6.63 1.25 -2.61 6.20 4.23 -2.60 4.38 6.61 -2.18 3.41 5.96 -1.62 2.45 4.95 -0.75 1.04 3.99 -0.74 1.42 2.99 -0.63 1.32 1.99 -0.51 1.15 -2.05 -0.76 -0.98 -4.28 -1.92 0.17 -5.16 -1.79 -0.28 -5.02 -2.97 2.44 -5.21 -3.11 3.27 -2.09 -3.15 5.83 -0.41 -2.60 6.73 0.28 -2.86 6.53 0.16 -2.86 6.61 0.29 -3.01 6.67 1.05 -3.19 6.76 2.63 -3.15 5.85 6.16 -2.99 3.73 5.93 -1.31 0.78 3.91 -0.64 -1.83 3.99 -1.01 1.06 2.99 -0.92 1.05 1.99 -0.75 0.90 -1.32 -0.89 -1.55 -4.72 -1.09 -2.25 -6.50 -3.05 1.43 -5.57 -3.70 3.37 -5.59 -3.26 4.30 -1.16 -3.38 6.94 -0.32 -2.74 7.13 0.24 -2.91 7.08 0.16 -3.19 7.10 0.48 -3.76 7.20 3.98 -3.03 5.05 7.92 -2.86 2.87 5.20 -1.24 -1.54 3.78 -1.07 -2.39 2.00 -0.99 0.59 -4.02 -2.47 -3.09 -5.08 -2.38 -2.82 -7.50 -3.04 3.13 -4.97 -2.48 6.56 -3.65 -1.73 6.85 -1.56 -1.20 6.98 0.55 -1.00 7.34 2.01 -2.29 7.94 4.13 -2.42 6.44 5.33 -2.62 5.49 7.91 -3.14 3.00 5.45 -1.91 -1.42 4.90 -2.06 -0.16 1.21 -1.75 0.54 -5.36 -2.08 6.90 -1.76 -2.21 9.85 -3.21 -1.79 9.11 -2.24 -1.15 6.96 1.47 -0.77 7.14 4.70 -0.64 7.20 4.28 -1.05 8.72 4.25 -1.61 8.81 7.89 -3.07 2.61 2.09 -1.94 -0.08 1.45 -2.85 0.94 0.69 -2.51 0.80 -0.90 -2.46 10.25 -2.65 -2.28 9.64 -2.23 -1.15 7.01 -0.21 -0.26 7.45 0.18 -0.13 7.30 3.55 -1.20 8.76 2.67 -2.17 9.63 4.51 -2.48 8.40 -1.03 -2.51 11.01 -2.72 -2.05 8.75 -0.14 0.30 7.16 -0.36 1.42 7.74 -0.52 0.49 7.03 -0.17 -0.41 7.48 1.80 -2.38 9.81 1.20 -3.27 10.60 -1.07 2.28 10.58 -2.10 -0.35 9.62 0.53 0.70 7.13 0.52 1.86 7.14 -0.10 2.50 7.35 -0.74 2.49 7.38 -1.32 2.07 7.40 -1.59 0.89 7.51 -0.46 -1.10 10.91 0.26 2.58 10.63 0.48 1.35 8.97 1.63 1.56 7.64 1.03 1.57 6.83 0.58 1.67 6.87 -0.03 1.73 6.93 -0.60 1.75 6.94 -1.27 1.77 6.94 -1.98 1.84 7.02 -2.17 1.74 8.14 3.49 0.20 7.82 5.92 -2.28 2.68 -1.18 0.77 9.57 1.40 1.05 9.27 2.10 1.02 7.79 1.57 0.94 6.92 0.95 0.88 6.62 0.48 0.87 6.64 -0.05 0.86 6.71 -0.54 0.86 6.70 -1.18 0.91 6.76 -1.91 1.01 6.91 -2.44 1.08 7.18 -0.99 0.93 8.34 5.41 -1.54 4.55 0.80 0.43 9.81 2.09 0.08 8.44 2.01 0.17 7.19 1.31 0.10 6.58 0.81 0.07 6.49 0.41 0.07 6.55 -0.04 0.05 6.65 -0.48 0.06 6.52 -1.04 0.10 6.58 -1.65 0.23 6.84 -2.33 0.31 7.01 -2.22 0.26 7.48 4.68 -0.41 5.71 -4.06 -3.12 5.28 1.15 -0.84 8.57 1.98 -0.70 7.57 1.70 -0.65 6.77 1.04 -0.70 6.29 0.66 -0.71 6.35 0.29 -0.68 6.48 0.01 -0.68 6.61 -0.35 -0.62 6.32 -0.74 -0.61 6.33 -1.25 -0.55 6.72 -1.93 -0.47 6.94 -2.09 -0.48 7.14 0.40 -1.31 5.01 5.33 -3.28 1.90 -4.32 -0.16 6.04 1.68 -1.63 7.18 1.76 -1.41 7.09 1.33 -1.45 6.63 0.84 -1.51 6.06 0.59 -1.50 6.09 0.27 -1.50 6.27 0.12 -1.46 6.42 -0.39 -1.39 6.21 -0.78 -1.32 6.18 -1.07 -1.31 6.60 -1.63 -1.22 6.86 -1.64 -1.12 6.98 0.49 -1.17 5.28 4.34 0.11 3.86 -3.55 -1.38 6.58 1.57 -2.39 6.71 1.38 -2.28 6.83 1.12 -2.36 6.31 0.79 -2.35 5.71 0.60 -2.31 5.71 0.34 -2.32 5.89 0.15 -2.31 6.07 -0.44 -2.25 5.99 -0.92 -2.15 5.93 -1.01 -2.10 6.45 -1.39 -2.02 6.76 -1.27 -1.81 6.90 0.22 -1.54 5.46 5.07 0.16 4.67 0.93 -3.55 5.22 1.36 -3.29 6.18 1.11 -3.25 5.80 0.85 -3.19 5.30 0.65 -3.11 5.27 0.40 -3.09 5.43 0.11 -3.12 5.64 -0.53 -3.10 5.70 -1.10 -3.04 5.69 -1.03 -2.89 6.16 -1.22 -2.86 6.37 -1.02 -2.66 6.63 0.17 -2.17 4.85 7.95 -2.05 1.53 -2.88 -2.52 3.13 -0.09 -4.29 3.11 1.31 -3.73 4.46 1.26 -4.01 5.04 0.93 -3.96 4.72 0.65 -3.80 4.63 0.39 -3.66 4.75 0.04 -3.61 4.88 -0.55 -3.69 5.00 -1.03 -3.64 4.94 -0.87 -3.29 4.91 -0.82 -3.47 4.95 -0.40 -3.40 5.47 0.48 -2.63 4.34 4.63 -0.27 8.73 -3.48 -3.61 1.27 -3.28 -5.52 1.01 0.68 -4.49 2.61 0.98 -4.44 3.65 0.82 -4.35 3.69 0.46 -4.22 3.62 0.19 -4.09 3.64 -0.19 -3.95 3.56 -0.35 -4.01 3.54 -0.41 -4.16 3.43 -0.52 -4.27 3.36 -0.43 -4.32 3.48 -0.16 -3.89 3.63 4.23 -2.14 5.30 5.01 -0.16 6.21 -3.14 -3.60 1.19 0.04 -3.75 1.33 0.25 -4.90 1.95 0.14 -4.74 2.16 -0.05 -4.57 2.26 0.01 -4.51 2.34 -0.33 -4.54 2.53 -0.47 -4.58 2.51 -0.14 -4.76 2.55 0.02 -4.84 2.37 0.33 -4.84 2.04 1.06 -3.44 1.08 4.84 -2.57 5.13 4.68 -1.70 6.10 -4.06 -5.26 -1.70 -0.22 -3.63 0.23 -0.36 -4.98 1.33 -0.16 -4.93 1.71 0.08 -4.76 1.65 -0.22 -4.86 1.68 -0.36 -4.92 1.56 0.11 -4.97 1.38 0.96 -4.87 0.98 2.29 -3.82 -0.29 3.93 -3.43 0.66 1.81 -0.71 0.63 -1.79 0.47 -1.03 -1.33 -2.81 -1.92 -0.44 -4.23 0.09 -0.27 -4.96 1.04 0.16 -4.83 0.85 0.57 -4.69 0.55 0.61 -4.84 0.50 1.80 -4.71 -0.04 2.76 -4.34 -1.25 3.62 -3.78 -0.48 -1.91 -0.54 -1.51 -2.20 -2.96 -1.46 -0.74 -4.45 -0.37 0.15 -4.80 -0.66 0.97 -4.36 -0.95 1.97 -4.66 -0.94 3.46 -4.97 -1.75 4.15 -4.72 -1.64 2.00 0.16 -0.84 -3.19 -0.61 4.63 -4.02 -0.77 5.39 3.58 -1.42 5.53 2.39 -1.36 4.56 -2.44 -0.03 2.65 -4.