# vtk DataFile Version 2.0
VTK from Matlab
ASCII
DATASET STRUCTURED_GRID
DIMENSIONS 7101 1 1
POINTS 7101 float
14.00 48.00 6.00 15.00 48.00 6.00 16.00 48.00 6.00 17.00 48.00 6.00 13.00 49.00 6.00 14.00 49.00 6.00 15.00 49.00 6.00 17.00 49.00 6.00 18.00 49.00 6.00 13.00 50.00 6.00 14.00 50.00 6.00 15.00 50.00 6.00 16.00 50.00 6.00 17.00 50.00 6.00 18.00 50.00 6.00 19.00 50.00 6.00 7.00 28.00 7.00 14.00 37.00 7.00 15.00 37.00 7.00 16.00 37.00 7.00 17.00 37.00 7.00 18.00 37.00 7.00 19.00 37.00 7.00 12.00 38.00 7.00 13.00 38.00 7.00 14.00 38.00 7.00 15.00 38.00 7.00 16.00 38.00 7.00 17.00 38.00 7.00 18.00 38.00 7.00 20.00 38.00 7.00 12.00 39.00 7.00 13.00 39.00 7.00 14.00 39.00 7.00 15.00 39.00 7.00 16.00 39.00 7.00 17.00 39.00 7.00 18.00 39.00 7.00 19.00 39.00 7.00 20.00 39.00 7.00 12.00 40.00 7.00 13.00 40.00 7.00 14.00 40.00 7.00 15.00 40.00 7.00 16.00 40.00 7.00 17.00 40.00 7.00 18.00 40.00 7.00 19.00 40.00 7.00 20.00 40.00 7.00 21.00 40.00 7.00 11.00 41.00 7.00 12.00 41.00 7.00 13.00 41.00 7.00 14.00 41.00 7.00 15.00 41.00 7.00 16.00 41.00 7.00 17.00 41.00 7.00 18.00 41.00 7.00 19.00 41.00 7.00 20.00 41.00 7.00 21.00 41.00 7.00 11.00 42.00 7.00 12.00 42.00 7.00 13.00 42.00 7.00 14.00 42.00 7.00 15.00 42.00 7.00 16.00 42.00 7.00 17.00 42.00 7.00 18.00 42.00 7.00 19.00 42.00 7.00 20.00 42.00 7.00 21.00 42.00 7.00 11.00 43.00 7.00 12.00 43.00 7.00 13.00 43.00 7.00 14.00 43.00 7.00 15.00 43.00 7.00 16.00 43.00 7.00 17.00 43.00 7.00 18.00 43.00 7.00 19.00 43.00 7.00 20.00 43.00 7.00 21.00 43.00 7.00 11.00 44.00 7.00 12.00 44.00 7.00 13.00 44.00 7.00 14.00 44.00 7.00 18.00 44.00 7.00 19.00 44.00 7.00 20.00 44.00 7.00 21.00 44.00 7.00 11.00 45.00 7.00 12.00 45.00 7.00 13.00 45.00 7.00 15.00 45.00 7.00 16.00 45.00 7.00 17.00 45.00 7.00 18.00 45.00 7.00 19.00 45.00 7.00 20.00 45.00 7.00 11.00 46.00 7.00 12.00 46.00 7.00 13.00 46.00 7.00 14.00 46.00 7.00 15.00 46.00 7.00 16.00 46.00 7.00 17.00 46.00 7.00 18.00 46.00 7.00 19.00 46.00 7.00 11.00 47.00 7.00 13.00 47.00 7.00 14.00 47.00 7.00 15.00 47.00 7.00 17.00 47.00 7.00 18.00 47.00 7.00 13.00 48.00 7.00 14.00 48.00 7.00 15.00 48.00 7.00 16.00 48.00 7.00 17.00 48.00 7.00 18.00 48.00 7.00 19.00 48.00 7.00 20.00 48.00 7.00 13.00 49.00 7.00 14.00 49.00 7.00 15.00 49.00 7.00 16.00 49.00 7.00 17.00 49.00 7.00 18.00 49.00 7.00 19.00 49.00 7.00 20.00 49.00 7.00 13.00 50.00 7.00 14.00 50.00 7.00 15.00 50.00 7.00 16.00 50.00 7.00 17.00 50.00 7.00 18.00 50.00 7.00 19.00 50.00 7.00 10.00 22.00 8.00 11.00 22.00 8.00 12.00 22.00 8.00 10.00 23.00 8.00 11.00 23.00 8.00 12.00 23.00 8.00 14.00 23.00 8.00 18.00 23.00 8.00 8.00 24.00 8.00 9.00 24.00 8.00 10.00 24.00 8.00 11.00 24.00 8.00 12.00 24.00 8.00 14.00 24.00 8.00 15.00 24.00 8.00 16.00 24.00 8.00 17.00 24.00 8.00 18.00 24.00 8.00 19.00 24.00 8.00 22.00 24.00 8.00 7.00 25.00 8.00 8.00 25.00 8.00 9.00 25.00 8.00 10.00 25.00 8.00 11.00 25.00 8.00 12.00 25.00 8.00 13.00 25.00 8.00 14.00 25.00 8.00 15.00 25.00 8.00 16.00 25.00 8.00 17.00 25.00 8.00 18.00 25.00 8.00 19.00 25.00 8.00 20.00 25.00 8.00 22.00 25.00 8.00 23.00 25.00 8.00 8.00 26.00 8.00 9.00 26.00 8.00 10.00 26.00 8.00 12.00 26.00 8.00 13.00 26.00 8.00 14.00 26.00 8.00 15.00 26.00 8.00 16.00 26.00 8.00 17.00 26.00 8.00 18.00 26.00 8.00 19.00 26.00 8.00 23.00 26.00 8.00 24.00 26.00 8.00 7.00 27.00 8.00 8.00 27.00 8.00 9.00 27.00 8.00 10.00 27.00 8.00 13.00 27.00 8.00 14.00 27.00 8.00 15.00 27.00 8.00 16.00 27.00 8.00 17.00 27.00 8.00 18.00 27.00 8.00 19.00 27.00 8.00 24.00 27.00 8.00 6.00 28.00 8.00 7.00 28.00 8.00 8.00 28.00 8.00 9.00 28.00 8.00 10.00 28.00 8.00 13.00 28.00 8.00 14.00 28.00 8.00 15.00 28.00 8.00 16.00 28.00 8.00 17.00 28.00 8.00 18.00 28.00 8.00 24.00 28.00 8.00 8.00 29.00 8.00 13.00 29.00 8.00 14.00 29.00 8.00 15.00 29.00 8.00 16.00 29.00 8.00 17.00 29.00 8.00 18.00 29.00 8.00 25.00 29.00 8.00 14.00 30.00 8.00 15.00 30.00 8.00 16.00 30.00 8.00 17.00 30.00 8.00 18.00 30.00 8.00 15.00 31.00 8.00 16.00 31.00 8.00 17.00 31.00 8.00 14.00 36.00 8.00 15.00 36.00 8.00 16.00 36.00 8.00 17.00 36.00 8.00 18.00 36.00 8.00 20.00 36.00 8.00 12.00 37.00 8.00 13.00 37.00 8.00 14.00 37.00 8.00 15.00 37.00 8.00 16.00 37.00 8.00 17.00 37.00 8.00 18.00 37.00 8.00 19.00 37.00 8.00 20.00 37.00 8.00 21.00 37.00 8.00 12.00 38.00 8.00 13.00 38.00 8.00 14.00 38.00 8.00 15.00 38.00 8.00 16.00 38.00 8.00 17.00 38.00 8.00 18.00 38.00 8.00 19.00 38.00 8.00 20.00 38.00 8.00 21.00 38.00 8.00 11.00 39.00 8.00 12.00 39.00 8.00 13.00 39.00 8.00 14.00 39.00 8.00 15.00 39.00 8.00 16.00 39.00 8.00 17.00 39.00 8.00 18.00 39.00 8.00 19.00 39.00 8.00 20.00 39.00 8.00 21.00 39.00 8.00 22.00 39.00 8.00 11.00 40.00 8.00 12.00 40.00 8.00 13.00 40.00 8.00 14.00 40.00 8.00 15.00 40.00 8.00 16.00 40.00 8.00 17.00 40.00 8.00 18.00 40.00 8.00 19.00 40.00 8.00 20.00 40.00 8.00 21.00 40.00 8.00 10.00 41.00 8.00 11.00 41.00 8.00 12.00 41.00 8.00 13.00 41.00 8.00 14.00 41.00 8.00 15.00 41.00 8.00 16.00 41.00 8.00 17.00 41.00 8.00 18.00 41.00 8.00 19.00 41.00 8.00 20.00 41.00 8.00 21.00 41.00 8.00 22.00 41.00 8.00 10.00 42.00 8.00 11.00 42.00 8.00 12.00 42.00 8.00 13.00 42.00 8.00 14.00 42.00 8.00 15.00 42.00 8.00 16.00 42.00 8.00 17.00 42.00 8.00 18.00 42.00 8.00 19.00 42.00 8.00 20.00 42.00 8.00 21.00 42.00 8.00 22.00 42.00 8.00 23.00 42.00 8.00 10.00 43.00 8.00 11.00 43.00 8.00 12.00 43.00 8.00 13.00 43.00 8.00 14.00 43.00 8.00 15.00 43.00 8.00 16.00 43.00 8.00 17.00 43.00 8.00 18.00 43.00 8.00 19.00 43.00 8.00 20.00 43.00 8.00 21.00 43.00 8.00 22.00 43.00 8.00 23.00 43.00 8.00 9.00 44.00 8.00 10.00 44.00 8.00 11.00 44.00 8.00 12.00 44.00 8.00 13.00 44.00 8.00 14.00 44.00 8.00 15.00 44.00 8.00 16.00 44.00 8.00 17.00 44.00 8.00 18.00 44.00 8.00 19.00 44.00 8.00 20.00 44.00 8.00 21.00 44.00 8.00 22.00 44.00 8.00 23.00 44.00 8.00 9.00 45.00 8.00 10.00 45.00 8.00 11.00 45.00 8.00 12.00 45.00 8.00 13.00 45.00 8.00 14.00 45.00 8.00 15.00 45.00 8.00 16.00 45.00 8.00 17.00 45.00 8.00 18.00 45.00 8.00 19.00 45.00 8.00 20.00 45.00 8.00 21.00 45.00 8.00 22.00 45.00 8.00 10.00 46.00 8.00 11.00 46.00 8.00 12.00 46.00 8.00 13.00 46.00 8.00 14.00 46.00 8.00 15.00 46.00 8.00 16.00 46.00 8.00 17.00 46.00 8.00 18.00 46.00 8.00 19.00 46.00 8.00 20.00 46.00 8.00 21.00 46.00 8.00 22.00 46.00 8.00 11.00 47.00 8.00 12.00 47.00 8.00 13.00 47.00 8.00 14.00 47.00 8.00 15.00 47.00 8.00 16.00 47.00 8.00 17.00 47.00 8.00 18.00 47.00 8.00 19.00 47.00 8.00 20.00 47.00 8.00 21.00 47.00 8.00 22.00 47.00 8.00 12.00 48.00 8.00 13.00 48.00 8.00 14.00 48.00 8.00 15.00 48.00 8.00 16.00 48.00 8.00 17.00 48.00 8.00 18.00 48.00 8.00 19.00 48.00 8.00 20.00 48.00 8.00 21.00 48.00 8.00 12.00 49.00 8.00 13.00 49.00 8.00 14.00 49.00 8.00 15.00 49.00 8.00 16.00 49.00 8.00 17.00 49.00 8.00 18.00 49.00 8.00 19.00 49.00 8.00 20.00 49.00 8.00 13.00 50.00 8.00 14.00 50.00 8.00 15.00 50.00 8.00 16.00 50.00 8.00 17.00 50.00 8.00 18.00 50.00 8.00 19.00 50.00 8.00 20.00 50.00 8.00 15.00 18.00 9.00 16.00 18.00 9.00 12.00 19.00 9.00 13.00 19.00 9.00 14.00 19.00 9.00 15.00 19.00 9.00 16.00 19.00 9.00 17.00 19.00 9.00 11.00 20.00 9.00 12.00 20.00 9.00 13.00 20.00 9.00 14.00 20.00 9.00 15.00 20.00 9.00 16.00 20.00 9.00 17.00 20.00 9.00 18.00 20.00 9.00 19.00 20.00 9.00 20.00 20.00 9.00 21.00 20.00 9.00 10.00 21.00 9.00 11.00 21.00 9.00 12.00 21.00 9.00 13.00 21.00 9.00 14.00 21.00 9.00 15.00 21.00 9.00 16.00 21.00 9.00 17.00 21.00 9.00 18.00 21.00 9.00 19.00 21.00 9.00 20.00 21.00 9.00 21.00 21.00 9.00 22.00 21.00 9.00 10.00 22.00 9.00 11.00 22.00 9.00 12.00 22.00 9.00 13.00 22.00 9.00 14.00 22.00 9.00 15.00 22.00 9.00 16.00 22.00 9.00 17.00 22.00 9.00 18.00 22.00 9.00 19.00 22.00 9.00 20.00 22.00 9.00 21.00 22.00 9.00 22.00 22.00 9.00 8.00 23.00 9.00 9.00 23.00 9.00 10.00 23.00 9.00 11.00 23.00 9.00 12.00 23.00 9.00 13.00 23.00 9.00 14.00 23.00 9.00 15.00 23.00 9.00 16.00 23.00 9.00 17.00 23.00 9.00 18.00 23.00 9.00 19.00 23.00 9.00 20.00 23.00 9.00 21.00 23.00 9.00 22.00 23.00 9.00 23.00 23.00 9.00 7.00 24.00 9.00 8.00 24.00 9.00 9.00 24.00 9.00 10.00 24.00 9.00 11.00 24.00 9.00 12.00 24.00 9.00 13.00 24.00 9.00 14.00 24.00 9.00 15.00 24.00 9.00 16.00 24.00 9.00 17.00 24.00 9.00 18.00 24.00 9.00 19.00 24.00 9.00 20.00 24.00 9.00 21.00 24.00 9.00 22.00 24.00 9.00 23.00 24.00 9.00 24.00 24.00 9.00 8.00 25.00 9.00 9.00 25.00 9.00 10.00 25.00 9.00 11.00 25.00 9.00 12.00 25.00 9.00 13.00 25.00 9.00 14.00 25.00 9.00 15.00 25.00 9.00 16.00 25.00 9.00 17.00 25.00 9.00 18.00 25.00 9.00 19.00 25.00 9.00 20.00 25.00 9.00 21.00 25.00 9.00 22.00 25.00 9.00 23.00 25.00 9.00 24.00 25.00 9.00 25.00 25.00 9.00 7.00 26.00 9.00 8.00 26.00 9.00 9.00 26.00 9.00 10.00 26.00 9.00 11.00 26.00 9.00 12.00 26.00 9.00 13.00 26.00 9.00 14.00 26.00 9.00 15.00 26.00 9.00 16.00 26.00 9.00 17.00 26.00 9.00 18.00 26.00 9.00 19.00 26.00 9.00 20.00 26.00 9.00 21.00 26.00 9.00 22.00 26.00 9.00 23.00 26.00 9.00 24.00 26.00 9.00 6.00 27.00 9.00 7.00 27.00 9.00 8.00 27.00 9.00 9.00 27.00 9.00 10.00 27.00 9.00 11.00 27.00 9.00 12.00 27.00 9.00 13.00 27.00 9.00 14.00 27.00 9.00 15.00 27.00 9.00 16.00 27.00 9.00 17.00 27.00 9.00 18.00 27.00 9.00 19.00 27.00 9.00 20.00 27.00 9.00 21.00 27.00 9.00 22.00 27.00 9.00 23.00 27.00 9.00 24.00 27.00 9.00 25.00 27.00 9.00 6.00 28.00 9.00 7.00 28.00 9.00 8.00 28.00 9.00 9.00 28.00 9.00 10.00 28.00 9.00 11.00 28.00 9.00 12.00 28.00 9.00 13.00 28.00 9.00 14.00 28.00 9.00 15.00 28.00 9.00 16.00 28.00 9.00 17.00 28.00 9.00 18.00 28.00 9.00 19.00 28.00 9.00 20.00 28.00 9.00 22.00 28.00 9.00 23.00 28.00 9.00 24.00 28.00 9.00 25.00 28.00 9.00 7.00 29.00 9.00 8.00 29.00 9.00 9.00 29.00 9.00 10.00 29.00 9.00 12.00 29.00 9.00 13.00 29.00 9.00 14.00 29.00 9.00 15.00 29.00 9.00 16.00 29.00 9.00 17.00 29.00 9.00 18.00 29.00 9.00 19.00 29.00 9.00 20.00 29.00 9.00 23.00 29.00 9.00 24.00 29.00 9.00 25.00 29.00 9.00 10.00 30.00 9.00 12.00 30.00 9.00 13.00 30.00 9.00 14.00 30.00 9.00 15.00 30.00 9.00 16.00 30.00 9.00 17.00 30.00 9.00 18.00 30.00 9.00 19.00 30.00 9.00 20.00 30.00 9.00 23.00 30.00 9.00 13.00 31.00 9.00 14.00 31.00 9.00 15.00 31.00 9.00 16.00 31.00 9.00 17.00 31.00 9.00 
[...]
POINT_DATA 7101
VECTORS vector_field float
0.27 -2.00 -0.15 -0.39 -2.00 -0.20 -1.42 -2.00 -0.51 -1.20 1.00 -1.42 0.49 1.08 -3.00 -0.55 1.70 -3.00 -1.70 0.55 -3.00 -2.85 0.82 -3.00 -4.21 1.51 -3.00 0.59 0.22 -3.00 1.74 2.94 -3.00 -0.99 0.99 -3.00 -0.08 2.97 -3.00 -0.86 2.98 -3.00 -1.75 2.97 -3.00 -2.73 2.97 -3.00 0.04 0.09 -2.00 -8.58 -5.74 13.00 2.88 6.50 15.03 1.88 6.49 15.03 12.00 -8.08 8.68 10.04 -7.00 5.91 9.15 -7.00 5.50 -3.96 -7.89 -3.67 -4.98 -7.25 -3.96 -11.00 -6.01 4.48 2.88 5.50 15.03 1.88 5.49 15.03 0.88 5.49 15.03 -0.12 5.49 15.03 7.46 -9.20 10.33 -4.12 -8.22 -3.84 -5.18 -9.00 -3.14 3.83 4.46 15.04 2.88 4.49 15.03 1.88 4.50 15.03 0.88 4.49 15.03 -0.12 4.49 15.03 -1.12 4.49 15.03 8.86 -9.99 9.03 -9.00 -6.33 5.00 4.76 3.42 15.04 3.87 3.49 15.03 2.88 3.49 15.03 1.88 3.50 15.03 0.88 3.49 15.03 -0.12 3.49 15.03 -1.12 3.49 15.03 -2.12 3.49 15.03 7.17 -10.00 3.97 -4.05 -1.17 -6.00 -9.00 -6.30 4.55 4.83 2.46 15.04 3.88 2.49 15.03 2.88 2.50 15.03 1.88 2.49 15.03 0.88 2.49 15.03 -0.12 2.49 15.03 -1.12 2.49 15.03 -2.12 2.49 15.03 8.00 -11.76 7.29 -1.13 0.98 -1.91 -3.60 -2.12 -6.00 4.88 1.49 15.03 3.88 1.49 15.03 2.88 1.50 15.03 1.88 1.50 15.03 0.88 1.49 15.03 -0.12 1.49 15.03 -1.12 1.49 15.03 -2.12 1.49 15.03 -3.12 1.49 15.03 -1.13 -0.01 -1.92 -9.00 -8.27 4.63 4.88 0.49 15.03 3.88 0.49 15.03 2.88 0.50 15.03 1.88 0.50 15.03 0.88 0.50 15.03 -0.12 0.50 15.03 -1.12 0.50 15.03 -2.12 0.50 15.03 -3.12 0.49 15.03 -4.94 -1.71 -5.42 -6.75 -0.24 -4.89 -0.45 -2.02 -0.87 3.88 -0.51 15.03 12.70 -1.08 4.18 9.49 -3.72 -6.00 -2.13 -0.51 15.03 -3.12 -0.50 15.03 -9.10 -6.04 3.22 -6.75 -4.31 1.76 -11.71 -5.17 2.97 -11.20 -11.26 -1.30 13.17 -1.62 10.13 0.88 -1.50 15.03 -0.13 -1.51 15.03 -1.13 -1.51 15.03 6.27 -7.70 -5.98 -9.30 -5.50 -3.01 -6.19 -4.86 -6.00 -4.22 -8.33 -6.00 -6.05 -16.00 -3.28 2.77 -2.57 15.04 1.87 -2.51 15.03 0.88 -2.51 15.03 -0.12 -2.50 15.03 10.54 -5.01 3.26 1.73 -0.51 -1.00 -6.00 -7.07 -6.00 3.85 -3.53 15.03 2.64 -3.65 15.05 0.81 -3.55 15.04 1.73 -0.79 -1.34 0.00 -1.54 -1.29 3.70 -4.61 15.05 -0.35 -2.00 -1.07 -1.38 -2.00 -1.15 -2.64 -2.00 -1.66 -0.50 -0.09 -2.00 -0.74 -0.89 -1.99 -2.01 1.00 -3.13 -2.46 0.06 -0.46 -1.71 0.74 -3.27 -2.04 0.91 -3.06 -2.65 0.28 -3.93 -3.19 0.82 -4.00 -4.28 0.99 -4.00 -5.06 1.49 -4.00 -3.76 3.98 -4.00 -2.04 0.60 -0.15 -0.83 0.33 -4.00 -1.71 0.43 -4.00 -2.67 0.43 -4.00 -0.94 2.98 -4.00 -1.72 2.97 -4.00 -2.71 2.97 -4.00 -2.03 -1.35 1.88 -3.11 -2.00 2.09 -4.00 -2.66 2.37 -2.06 -2.33 1.89 -3.02 -2.33 1.86 -4.53 -2.98 2.14 -6.98 -5.01 6.92 6.52 -4.00 3.48 -2.00 -0.47 1.85 -1.16 -3.10 1.84 -2.07 -3.29 1.87 -3.06 -3.32 1.89 -4.01 -3.32 1.84 -6.00 -6.73 4.86 -4.00 -10.06 9.07 6.21 -9.17 10.00 6.00 -7.25 5.72 6.00 -4.24 2.96 7.06 -3.29 5.07 4.03 -3.20 4.90 -2.00 0.47 1.62 -2.00 -0.11 0.83 -3.00 -1.33 1.94 -2.08 -4.17 1.80 -3.07 -4.25 1.85 -4.06 -4.30 1.87 -5.00 -4.31 1.81 -5.57 -7.23 8.11 0.05 -15.25 13.00 5.91 -6.76 10.58 7.43 -6.00 3.36 8.09 -4.48 5.51 7.05 -4.25 5.01 6.04 -4.23 4.95 6.00 -0.27 4.65 2.00 -1.23 0.95 -2.02 -0.60 -0.10 -1.93 2.31 -3.06 -2.83 2.39 -3.10 -4.07 -5.19 1.81 -5.01 -5.30 1.83 -1.77 -7.08 11.88 7.09 -11.09 10.00 6.91 -7.12 9.27 7.74 -7.00 3.51 8.06 -5.29 5.08 7.04 -5.23 4.95 5.00 -0.97 4.65 3.00 0.08 1.18 -0.01 1.27 -3.00 -0.95 1.07 -3.00 -1.07 3.00 -4.22 -2.87 0.95 -3.01 -5.04 -6.27 1.84 -6.00 -9.74 4.87 3.96 -15.26 13.00 8.50 -8.00 3.38 9.09 -6.50 5.68 8.05 -6.28 5.07 7.02 -6.11 4.70 3.03 0.71 0.79 1.90 2.00 -4.17 0.06 0.06 -3.00 -0.96 0.07 -3.00 -1.07 2.00 -4.20 -2.07 2.00 -4.20 -5.07 -7.21 1.82 -6.08 -7.19 1.81 -4.00 -14.61 9.11 10.00 -8.13 5.66 9.07 -7.33 5.15 8.05 -7.25 5.02 3.00 1.00 0.94 -0.03 1.00 -4.46 -5.10 -8.18 1.82 -6.00 -8.29 1.73 -7.00 -8.41 1.77 11.34 -5.00 9.47 9.05 -8.26 5.03 8.09 -8.32 5.22 2.00 -0.75 0.72 -6.00 -9.27 1.76 2.16 -3.69 9.73 10.10 -9.38 5.31 9.16 -9.14 5.27 10.72 -4.91 5.80 11.07 -10.14 4.97 10.11 -10.27 5.23 11.25 -7.70 9.09 3.80 7.45 14.04 0.08 -8.49 10.61 13.00 -7.34 7.68 12.00 -6.99 7.60 11.00 -7.24 5.34 9.00 -7.32 7.68 -6.00 -5.75 12.00 -6.96 -3.98 12.93 -8.58 -5.74 12.00 2.88 6.50 14.03 1.88 6.50 14.03 0.88 6.49 14.03 11.00 -8.09 7.57 9.04 -7.00 4.81 9.00 -7.67 7.32 7.18 -7.04 3.03 -7.07 -8.00 -0.05 -6.62 -4.16 13.00 3.86 5.48 14.03 2.88 5.50 14.03 1.88 5.50 14.03 0.88 5.49 14.03 -0.12 5.49 14.03 -1.12 5.49 14.03 9.00 -9.45 7.64 7.16 -8.03 3.01 -8.00 -4.71 3.84 -0.74 1.97 14.00 4.81 4.45 14.04 3.87 4.49 14.03 2.88 4.49 14.03 1.88 4.50 14.03 0.88 4.49 14.03 -0.12 4.49 14.03 -1.12 4.49 14.03 9.00 -10.46 7.65 7.14 -9.06 3.01 7.00 -5.82 2.47 -8.00 -6.05 3.99 5.74 3.41 14.04 4.85 3.47 14.03 3.88 3.49 14.03 2.88 3.50 14.03 1.88 3.50 14.03 0.88 3.49 14.03 -0.12 3.49 14.03 -1.13 3.49 14.03 -2.13 3.49 14.03 7.18 -10.03 3.02 -7.00 -6.84 3.98 -8.00 -6.82 3.97 5.73 2.40 14.04 4.84 2.47 14.04 3.88 2.49 14.03 2.88 2.50 14.03 1.88 2.49 14.03 0.88 2.49 14.03 -0.12 2.49 14.03 -1.12 2.49 14.03 -2.13 2.49 14.03 7.21 -11.02 3.04 7.00 -6.84 2.71 -7.00 -10.80 5.61 -8.00 -10.09 4.77 5.70 1.39 14.05 4.86 1.48 14.03 3.88 1.49 14.03 2.88 1.50 14.03 1.88 1.49 14.03 0.88 1.49 14.03 -0.12 1.49 14.03 -1.12 1.49 14.03 -2.12 1.49 14.03 8.00 -10.24 2.84 4.29 -2.33 -6.53 3.55 -2.35 -6.43 -0.19 -0.00 -2.95 -8.00 -9.74 4.29 5.77 0.43 14.04 4.87 0.49 14.03 3.88 0.49 14.03 2.88 0.50 14.03 1.88 0.50 14.03 0.88 0.49 14.03 -0.12 0.49 14.03 -1.12 0.49 14.03 -2.12 0.49 14.03 -3.12 0.49 14.03 7.10 -2.00 -3.49 3.65 -3.48 -6.21 -0.77 -4.26 -7.00 -0.19 -1.01 -2.84 6.88 -0.51 14.03 5.88 -0.51 14.03 4.88 -0.51 14.03 3.88 -0.51 14.03 2.88 -0.50 14.03 1.88 -0.50 14.03 0.88 -0.50 14.03 -0.12 -0.50 14.03 -1.12 -0.51 14.03 -2.12 -0.51 14.03 -3.12 -0.51 14.03 -4.12 -0.50 14.03 4.05 1.00 -1.63 -3.57 1.08 -0.41 -8.00 -2.34 5.54 6.88 -1.51 14.03 5.88 -1.51 14.03 4.88 -1.51 14.03 3.88 -1.51 14.03 2.88 -1.50 14.03 1.88 -1.50 14.03 0.88 -1.50 14.03 -0.12 -1.50 14.03 -1.12 -1.50 14.03 -2.12 -1.50 14.03 -3.12 -1.50 14.03 -4.12 -1.51 14.03 -9.00 -5.71 -0.38 -4.66 -5.73 -7.00 5.88 -2.51 14.03 4.88 -2.51 14.03 3.88 -2.51 14.03 2.88 -2.50 14.03 1.88 -2.50 14.03 0.88 -2.50 14.03 -0.12 -2.50 14.03 -1.12 -2.50 14.03 -2.12 -2.50 14.03 -2.28 -0.00 -2.00 -1.83 -0.86 -1.95 2.10 -0.99 -2.34 5.88 -3.51 14.03 4.88 -3.51 14.03 3.88 -3.51 14.03 2.88 -3.51 14.03 1.88 -3.51 14.03 0.88 -3.51 14.03 -0.12 -3.50 14.03 -1.12 -3.51 14.03 -1.51 -1.00 -2.37 -2.28 -1.00 -2.18 -2.01 -0.34 -2.83 0.54 -1.15 -2.00 -0.43 -1.67 -2.00 3.87 -4.51 14.03 2.77 -4.57 14.04 -6.74 -10.24 -7.00 0.88 -4.51 14.03 0.83 -0.23 -3.00 -0.67 -0.89 -2.99 -1.11 -1.24 -2.77 -1.19 -1.25 -2.94 -1.59 -0.04 -1.64 -2.73 -0.22 -1.96 -1.00 -2.10 -2.01 2.59 -5.69 14.06 -2.69 -2.93 -2.92 -3.17 0.66 -5.00 -4.18 0.67 -5.00 -5.19 0.74 -5.00 -5.76 1.32 -5.00 -2.00 0.49 -0.74 -3.00 -0.96 -1.28 -2.10 -0.12 -4.12 -3.05 -0.16 -4.12 -3.59 0.18 -5.00 -1.80 2.98 -5.00 -2.72 2.98 -5.00 1.00 1.39 -1.61 -2.99 0.60 10.94 -4.65 -1.03 13.00 -4.00 0.55 1.91 -5.00 -1.62 3.79 -6.00 -1.77 3.85 -7.00 -1.75 3.84 -5.00 -5.06 8.11 3.01 -5.39 9.56 -3.00 -0.60 1.51 -4.00 -0.47 1.81 -5.80 -0.92 2.30 -6.00 -2.73 3.86 -3.01 -1.43 10.94 -5.00 -6.06 8.12 3.01 -6.33 9.50 6.00 -2.22 3.82 5.47 -1.00 2.36 4.00 -0.50 1.93 2.01 -0.02 0.89 -2.08 -0.40 0.95 -3.00 -1.63 1.42 -4.00 -1.58 1.60 -5.00 -1.58 1.61 -6.00 -3.71 3.85 -7.98 -3.15 5.83 -4.67 -4.03 13.00 5.92 -5.85 9.01 6.00 -2.66 3.00 5.00 -1.50 1.91 3.07 -1.01 0.94 5.00 -1.34 4.28 4.04 -0.53 4.99 -2.08 -1.40 0.96 -3.00 -1.38 0.84 -4.00 -2.61 1.39 -5.00 -2.59 1.51 -6.00 -4.70 3.84 -4.00 -8.06 8.08 -5.01 -8.23 10.05 5.97 -6.81 8.96 6.00 -3.50 3.00 5.99 -2.94 2.78 6.89 0.91 8.69 5.10 -1.45 4.42 4.07 -1.34 4.17 -0.05 -2.32 0.88 -1.07 -2.35 0.91 -2.09 -2.33 0.91 -3.07 -2.33 0.90 -4.00 -2.34 0.81 -5.00 -3.30 1.21 -6.00 -5.72 3.86 -4.00 -9.06 8.09 -5.05 -9.29 10.36 4.77 -4.62 9.59 6.27 -4.01 3.00 7.09 -2.50 4.65 6.05 -2.26 4.01 5.04 -2.24 3.98 4.04 -2.23 3.95 3.03 -2.21 3.93 -1.72 -0.90 1.47 -2.40 -1.00 1.53 -1.33 -3.01 0.94 -2.14 -3.16 0.87 -3.08 -3.24 0.85 -4.08 -3.21 0.83 -6.27 -4.00 2.12 -6.00 -6.70 3.86 -3.00 -15.02 10.60 3.82 -11.35 10.93 5.60 -3.70 7.94 8.00 -3.77 4.82 7.07 -3.32 4.13 6.06 -3.28 4.07 5.04 -3.24 3.98 4.02 -3.15 3.74 2.00 -1.08 0.73 4.00 0.30 3.88 -2.00 -1.12 0.80 -3.88 -1.73 1.63 -4.76 -0.43 4.52 -3.39 -4.00 0.96 -5.00 -4.17 1.57 -6.75 -4.95 2.32 -4.09 -5.10 7.35 -1.60 -14.73 12.00 4.88 -5.74 9.59 3.07 -2.24 8.07 8.04 -4.25 3.96 7.04 -4.22 3.95 6.03 -4.19 3.87 5.12 -4.38 4.38 6.39 -1.66 7.73 5.01 -1.01 4.27 3.00 -1.36 2.95 3.00 -0.06 3.88 -2.00 -0.80 0.79 -3.00 -0.59 0.72 -4.00 -2.62 2.34 -4.00 -0.18 -1.72 -3.14 -5.14 0.84 -6.00 -4.52 2.20 -7.00 -5.47 2.16 -6.29 -3.62 6.19 5.98 -7.22 9.89 4.17 -3.88 8.18 9.00 -6.06 4.68 8.11 -5.48 4.79 7.15 -5.37 4.46 7.27 -2.66 8.00 7.04 -0.87 4.02 6.00 -0.94 3.71 5.00 -0.90 3.63 3.03 0.06 1.03 -1.00 -1.77 0.25 -2.00 -1.61 0.24 -3.00 -3.61 2.36 -4.00 -3.36 2.07 -1.91 4.50 -6.02 -3.92 1.30 -4.07 -5.98 -5.92 1.52 -7.53 -2.78 4.81 -5.89 -3.98 5.97 2.00 -0.66 8.77 1.34 -0.78 8.70 9.99 -3.81 8.40 8.99 -3.89 8.17 8.70 -3.65 8.09 8.00 -1.86 3.96 7.00 -1.88 3.63 6.00 -1.83 3.65 5.00 -1.65 3.84 3.00 -1.31 1.58 2.01 0.01 0.05 -1.00 1.23 -1.56 0.00 0.08 -4.00 -0.92 0.43 -4.09 -2.03 -0.14 -4.00 -2.00 2.00 -5.23 -3.12 2.00 -5.15 -4.86 -0.07 -4.01 -8.01 -4.94 3.76 -1.92 -3.20 7.54 2.01 -1.65 8.75 1.26 -1.74 8.71 1.15 -2.09 8.59 7.06 -2.67 6.63 9.24 -2.81 4.13 8.00 -2.88 3.63 6.00 0.66 1.62 5.00 0.67 1.62 4.01 0.89 1.68 2.00 0.40 -0.14 0.17 -0.94 -4.04 -3.01 1.00 -1.01 -5.00 -1.15 2.47 -2.07 1.00 -5.20 -4.11 1.00 -5.16 -6.00 -7.24 0.91 -7.14 -8.10 1.88 2.02 -2.65 8.75 1.52 -2.86 8.68 2.18 -3.81 8.12 10.54 -3.92 5.37 9.00 -3.83 3.64 8.00 -3.60 3.98 5.00 -0.36 1.61 4.00 -0.40 1.61 3.01 -0.14 1.63 -2.06 -0.00 -5.21 -4.07 -0.00 -5.20 -5.89 -1.77 -4.06 2.85 -3.62 8.78 2.62 -3.91 8.66 8.27 -4.55 6.55 12.00 -4.71 5.04 10.00 -4.68 3.75 9.00 -4.54 3.97 8.00 -1.35 1.61 5.00 -1.45 1.60 -5.83 -2.64 -4.10 -7.58 -6.81 4.92 8.83 -5.32 6.64 9.20 -5.22 6.40 9.57 -4.94 6.20 10.99 -5.43 4.43 9.00 -2.43 1.61 8.00 -2.45 1.60 -5.00 -2.00 -5.16 7.88 -6.44 7.49 9.50 -6.18 6.43 8.72 -6.12 6.39 11.00 -2.96 2.18 10.00 -3.32 1.62 9.00 -3.34 1.62 1.02 -7.48 9.56 12.93 -6.05 7.82 12.29 -5.04 2.34 11.10 -5.15 2.06 10.00 -4.06 0.71 9.10 -5.21 2.12 -0.83 5.19 13.00 -6.39 -2.90 12.00 3.83 7.46 13.04 2.70 7.39 13.05 -0.97 -8.48 9.57 12.00 -7.38 6.66 11.00 -7.33 5.87 9.18 -6.26 2.26 9.00 -7.32 6.68 -0.74 3.99 13.00 -5.58 -2.85 13.00 3.88 6.49 13.03 2.88 6.50 13.03 1.88 6.50 13.03 0.88 6.49 13.03 -0.12 6.49 13.03 -1.12 6.49 13.03 9.00 -8.33 6.68 6.75 5.42 13.04 -0.73 2.96 13.00 4.84 5.47 13.04 3.87 5.49 13.03 2.88 5.50 13.03 1.88 5.50 13.03 0.88 5.49 13.03 -0.12 5.49 13.03 -1.12 5.49 13.03 6.00 -4.01 12.32 8.00 -4.73 1.93 6.20 -8.06 2.07 -7.00 -5.82 3.20 6.74 4.41 13.04 5.77 4.43 13.04 4.83 4.46 13.04 3.87 4.49 13.03 2.88 4.49 13.03 1.88 4.50 13.03 0.88 4.49 13.03 -0.12 4.49 13.03 -1.12 4.49 13.03 -2.14 4.49 13.03 7.30 -7.58 9.00 6.22 -9.01 1.98 -7.00 -5.85 2.87 6.70 3.38 13.05 5.74 3.41 13.04 4.84 3.47 13.03 3.88 3.49 13.03 2.88 3.50 13.03 1.88 3.50 13.03 0.88 3.49 13.03 -0.12 3.49 13.03 -1.13 3.49 13.03 -2.13 3.49 13.03 -3.13 3.49 13.03 6.22 -10.04 2.07 -7.00 -6.81 2.86 6.68 2.37 13.05 5.72 2.40 13.04 4.81 2.45 13.04 3.88 2.49 13.03 2.88 2.50 13.03 1.88 2.49 13.03 0.88 2.49 13.03 -0.12 2.49 13.03 -1.12 2.49 13.03 -2.13 2.49 13.03 -3.13 2.49 13.03 6.82 -11.00 2.09 6.02 -7.20 1.67 -7.00 -7.66 2.82 6.68 1.37 13.05 5.72 1.40 13.04 4.82 1.46 13.04 3.88 1.49 13.03 2.88 1.50 13.03 1.88 1.49 13.03 0.88 1.49 13.03 -0.12 1.49 13.03 -1.12 1.49 13.03 -2.13 1.49 13.03 -3.13 1.49 13.03 7.01 -8.59 1.91 6.01 -7.87 1.73 -7.00 -9.12 3.01 6.72 0.40 13.04 5.77 0.43 13.04 4.86 0.48 13.03 3.88 0.49 13.03 2.88 0.50 13.03 1.88 0.50 13.03 0.88 0.49 13.03 -0.12 0.49 13.03 -1.12 0.49 13.03 -2.12 0.49 13.03 -3.13 0.49 13.03 -4.12 0.49 13.03 3.57 -3.26 -7.70 -7.00 -10.01 2.98 6.83 -0.54 13.04 5.86 -0.52 13.03 4.88 -0.51 13.03 3.88 -0.51 13.03 2.88 -0.50 13.03 1.88 -0.50 13.03 0.88 -0.50 13.03 -0.12 -0.51 13.03 -1.12 -0.51 13.03 -2.12 -0.51 13.03 -3.12 -0.51 13.03 -4.12 -0.51 13.03 4.33 1.01 -1.90 4.00 0.78 -1.39 0.00 2.49 -0.37 -7.00 -11.50 3.10 6.88 -1.51 13.03 5.88 -1.51 13.03 4.88 -1.51 13.03 3.88 -1.51 13.03 2.88 -1.50 13.03 1.88 -1.50 13.03 0.88 -1.50 13.03 -0.12 -1.50 13.03 -1.12 -1.50 13.03 -2.12 -1.51 13.03 -3.12 -1.51 13.03 -4.12 -1.51 13.03 3.58 -0.00 -0.89 -5.27 -0.00 2.68 6.88 -2.51 13.03 5.88 -2.51 13.03 4.88 -2.51 13.03 3.88 -2.51 13.03 2.88 -2.50 13.03 1.88 -2.50 13.03 0.88 -2.50 13.03 -0.12 -2.50 13.03 -1.12 -2.50 13.03 -2.12 -2.50 13.03 -3.12 -2.50 13.03 -4.12 -2.51 13.03 6.87 -3.51 13.03 5.88 -3.51 13.03 4.88 -3.51 13.03 3.88 -3.51 13.03 2.88 -3.51 13.03 1.88 -3.50 13.03 0.88 -3.50 13.03 -0.12 -3.50 13.03 -1.12 -3.50 13.03 -2.12 -3.50 13.03 -3.12 -3.50 13.03 0.82 -0.64 -3.00 -0.44 -0.38 -3.00 4.88 -4.51 13.03 3.87 -4.51 13.03 2.88 -4.51 13.03 1.88 -4.50 13.03 0.88 -4.50 13.03 -0.12 -4.50 13.03 -1.12 -4.51 13.03 -1.53 -0.97 -3.98 1.98 0.67 0.11 -1.75 -0.15 -2.92 -1.57 -1.27 -3.00 -2.77 -1.09 -3.00 -5.61 -9.00 -7.06 -2.76 -3.00 -3.00 -1.05 -1.50 -4.00 -1.19 0.00 -4.60 -0.65 -0.99 -4.86 1.00 2.67 -2.48 -2.00 0.70 -1.38 2.07 -1.22 6.99 -4.00 -1.08 7.23 3.00 -1.41 8.51 -4.00 -2.08 7.22 -3.78 2.12 11.96 5.99 -0.79 8.01 -6.00 0.29 2.79 0.54 -3.69 11.00 -4.32 0.02 12.00 5.99 -1.79 8.01 2.01 -3.29 8.45 -4.00 -0.72 2.82 -5.00 -0.70 2.80 -6.00 -0.79 2.86 -2.96 -0.56 12.00 -3.99 0.55 9.99 5.99 -2.79 8.02 4.92 -2.79 8.00 4.04 0.36 7.39 -3.35 0.58 1.00 -4.83 0.12 1.29 -5.00 -1.74 2.84 -6.00 -1.78 2.86 -4.00 -5.06 7.06 -3.95 -1.47 12.00 3.01 -5.36 8.60 4.87 -0.66 7.61 5.00 -0.38 2.00 4.01 -0.02 1.95 -2.91 -0.62 1.38 -3.00 -0.18 0.93 -4.34 -0.24 1.00 -5.00 -2.68 2.83 -6.00 -2.72 2.86 -3.37 -3.00 12.00 -5.00 -6.06 7.42 3.01 -6.37 8.56 7.00 -2.36 5.00 5.09 -1.00 2.00 4.48 -1.00 1.41 3.57 -1.00 1.42 2.80 -1.00 1.53 -3.06 -0.99 1.07 -4.01 -1.00 1.37 -5.17 -1.03 1.23 -5.04 -3.00 2.79 -6.00 -3.70 2.88 -4.00 -7.05 7.46 -4.00 -2.44 9.98 3.00 -7.33 8.53 7.00 -3.00 6.42 5.83 -2.00 1.99 6.00 -1.37 3.45 5.00 -0.63 3.91 4.10 -0.46 3.45 3.08 -0.38 3.24 -4.25 -1.58 1.40 -4.97 -1.96 1.42 -3.77 -1.14 5.20 -4.77 -2.24 5.36 -6.92 -4.41 4.49 -4.00 -8.06 7.11 -4.71 -5.03 12.00 4.42 -3.31 8.60 5.24 -1.63 6.94 7.00 -2.87 3.86 6.00 -1.55 3.96 5.10 -1.47 3.47 4.04 -1.23 2.93 3.05 -1.31 3.06 -0.26 -2.00 0.52 -1.00 -2.00 0.48 -1.14 -2.21 -0.11 -3.15 -2.37 1.00 -4.49 -2.98 1.30 -5.88 -2.91 1.37 -6.78 -3.02 1.66 -6.39 -4.51 5.81 7.94 -7.75 8.02 -3.03 -3.24 9.48 1.85 0.32 7.36 2.79 -0.65 7.02 7.09 -2.50 3.62 6.05 -2.28 3.02 5.05 -2.26 3.04 4.04 -2.24 2.99 3.04 -2.23 2.96 2.02 -2.20 2.81 -1.50 -3.00 0.73 -3.00 -2.56 1.18 -3.12 -3.01 0.86 -5.00 -3.46 1.41 -6.00 -3.49 1.27 -7.00 -3.85 1.47 -5.17 -2.49 5.21 -1.40 -1.44 7.75 1.94 -0.89 7.91 2.19 0.11 7.09 4.11 -0.30 6.50 7.13 -3.43 3.56 7.00 -0.87 7.10 5.99 -0.89 7.12 4.12 -3.38 3.38 3.02 -3.10 2.66 2.05 -3.23 2.97 -1.00 -1.66 0.65 -2.27 -0.12 3.22 -2.87 -1.84 0.62 -3.43 -0.37 3.43 -3.99 -0.48 3.60 -4.62 -0.62 3.78 -7.06 -1.93 4.45 -7.00 -4.46 1.48 -6.05 -2.11 4.99 2.43 1.15 7.72 2.26 0.59 7.47 2.26 -0.34 7.07 5.66 -0.86 6.20 8.43 -1.45 7.00 6.89 -0.09 7.33 5.76 0.28 7.25 6.64 0.07 3.87 5.00 0.12 2.98 4.00 0.11 2.70 1.01 -2.37 0.99 2.00 -0.03 2.79 -1.62 -1.64 3.69 -2.94 -0.90 2.84 -4.00 -0.70 2.59 -2.86 -1.02 3.15 -3.47 -1.15 3.48 -4.44 -1.48 3.77 -5.45 -1.54 3.79 -5.92 -1.86 4.07 -4.62 -2.47 5.11 2.05 0.30 7.77 1.26 0.26 7.72 2.40 -0.88 7.07 3.58 -1.19 6.22 5.83 -0.79 5.68 5.90 -0.34 5.91 5.24 0.04 5.35 6.90 -0.88 4.20 5.79 -0.50 3.29 4.00 -0.06 2.74 3.00 -0.10 2.75 -1.70 -1.12 1.05 -3.38 -1.48 2.06 -4.22 -1.40 1.93 -5.05 -1.49 2.42 -3.40 -2.00 3.46 -4.36 -2.10 3.50 -4.99 -2.24 3.93 -5.03 -2.27 4.39 2.61 -0.79 7.80 1.95 -0.64 7.77 1.48 -0.85 7.68 0.60 -0.90 7.67 1.74 -1.92 6.98 3.74 -1.92 6.06 5.31 -1.39 5.49 7.93 -1.84 4.24 6.99 -1.50 3.48 5.00 -0.74 2.86 4.03 -0.50 2.60 3.00 -0.38 2.36 2.00 0.59 1.62 -1.24 -1.43 1.70 -3.37 -1.88 1.67 -5.55 -2.19 2.13 -5.08 -2.46 2.56 -5.70 -2.90 2.93 -4.49 -2.97 3.40 -5.15 -3.01 3.66 -3.81 -2.62 5.43 2.89 -1.63 7.78 1.89 -1.62 7.77 1.36 -1.78 7.70 0.59 -1.89 7.67 0.68 -2.52 7.31 2.60 -2.89 6.28 5.98 -1.98 5.19 8.00 -2.34 3.50 6.00 -1.63 2.99 5.88 -1.75 3.53 4.00 -1.27 2.67 3.00 -0.15 1.28 2.00 -0.07 1.18 -1.01 -1.78 1.85 -1.01 1.00 -2.00 -3.00 -1.81 1.71 -4.21 -2.37 1.72 -3.80 -1.82 3.87 -2.82 -0.73 -5.02 -6.19 -3.85 2.98 -5.44 -3.93 3.51 -4.36 -3.60 5.03 2.83 -2.61 7.78 1.90 -2.62 7.76 1.36 -2.78 7.70 0.77 -2.96 7.64 0.72 -3.55 7.29 4.77 -3.61 5.73 9.00 -3.36 4.02 7.67 -2.72 3.41 6.00 -2.33 2.92 5.00 -0.35 0.61 3.00 -0.31 -1.20 3.03 -0.10 0.69 2.00 -0.35 0.60 -0.48 0.01 -2.15 -1.04 0.00 -2.03 -2.02 0.00 -2.02 -5.00 -3.29 2.72 -2.06 -0.00 -6.21 -6.00 0.00 -2.00 -8.33 -4.39 2.62 -5.26 -4.37 4.54 2.76 -3.60 7.79 1.84 -3.59 7.77 1.49 -3.84 7.68 1.18 -4.09 7.58 4.07 -4.50 6.37 7.62 -3.85 5.11 8.93 -3.79 3.50 6.00 -1.43 0.61 5.00 -1.45 0.60 4.00 -1.39 0.61 3.00 -2.02 0.69 2.00 -2.12 0.71 -0.09 -1.00 -2.07 -1.06 -1.00 -2.05 -2.12 -0.22 -6.84 -2.89 -0.02 -7.00 -7.64 -3.42 3.88 -8.15 -3.99 4.69 -0.93 -4.62 7.17 1.65 -4.53 7.78 1.81 -4.97 7.64 1.31 -5.11 7.57 1.05 -5.21 7.46 9.00 -2.33 1.51 8.00 -2.42 0.61 6.00 -2.44 0.60 5.00 -2.45 0.60 2.19 -1.11 1.11 1.15 -1.27 1.24 -0.62 -1.98 -2.17 -1.95 -2.00 -6.51 -2.95 -2.00 -6.56 -4.01 -2.00 -6.44 -2.78 -5.76 6.67 1.24 -4.51 8.77 0.21 -4.51 8.74 -0.46 -4.50 9.03 11.32 -2.02 1.27 10.01 -2.02 0.71 9.00 -2.63 0.85 8.00 -4.11 0.73 6.00 -3.44 0.61 5.00 -3.44 0.61 1.10 -2.00 0.91 -3.94 -3.00 -6.59 1.99 -5.50 8.52 1.04 -5.48 8.58 13.97 -4.35 3.23 13.00 -4.25 5.70 12.00 -4.39 5.66 11.00 -4.08 5.69 9.30 -3.00 1.64 8.10 -3.05 0.95 2.11 -3.10 1.01 2.00 -1.91 0.74 -7.55 -2.72 10.00 3.83 9.46 12.04 0.03 -6.48 8.57 1.70 9.39 12.05 0.81 9.46 12.04 10.36 -4.00 2.20 9.18 -4.24 1.28 8.18 -4.25 1.28 -1.86 6.22 12.00 3.71 8.40 12.05 2.84 8.47 12.04 1.70 8.39 12.05 12.00 -6.08 5.69 11.00 -6.16 5.70 9.35 -5.00 2.35 9.00 -6.28 5.69 -0.69 4.92 12.00 -7.00 -3.91 10.46 3.87 7.49 12.03 2.87 7.49 12.03 1.87 7.49 12.03 0.87 7.49 12.03 -0.13 7.49 12.03 -1.30 7.39 12.05 8.20 -5.69 7.98 0.15 4.19 12.00 -0.84 4.20 12.00 4.86 6.48 12.03 3.88 6.49 12.03 2.88 6.50 12.03 1.88 6.50 12.03 0.88 6.50 12.03 -0.12 6.49 12.03 -1.12 6.49 12.03 8.15 -4.73 8.00 7.96 -6.99 1.19 7.00 -3.71 0.95 7.72 5.40 12.04 6.73 5.41 12.04 5.77 5.43 12.04 4.83 5.46 12.04 3.87 5.49 12.03 2.88 5.50 12.03 1.88 5.50 12.03 0.88 5.49 12.03 -0.12 5.49 12.03 -1.12 5.49 12.03 -2.14 5.49 12.03 -3.14 5.49 12.03 7.01 -4.65 0.63 7.72 4.40 12.04 6.73 4.40 12.04 5.76 4.42 12.04 4.82 4.46 12.04 3.86 4.48 12.03 2.88 4.49 12.03 1.88 4.50 12.03 0.88 4.49 12.03 -0.12 4.49 12.03 -1.13 4.49 12.03 -2.14 4.49 12.03 -3.13 4.49 12.03 7.01 -5.04 0.79 -6.00 -6.81 2.20 7.70 3.38 12.05 6.69 3.38 12.05 5.72 3.40 12.04 4.79 3.44 12.04 3.88 3.49 12.03 2.88 3.49 12.03 1.88 3.50 12.03 0.88 3.49 12.03 -0.13 3.49 12.03 -1.13 3.49 12.03 -2.13 3.49 12.03 -3.13 3.49 12.03 -4.13 3.49 12.03 6.03 -6.26 0.96 -6.00 -7.82 2.20 7.66 2.36 12.05 6.67 2.37 12.05 5.70 2.39 12.05 4.78 2.43 12.04 3.88 2.49 12.03 2.88 2.50 12.03 1.88 2.49 12.03 0.88 2.49 12.03 -0.12 2.49 12.03 -1.13 2.49 12.03 -2.13 2.49 12.03 -3.13 2.49 12.03 -4.13 2.49 12.03 6.01 -7.04 0.72 8.67 1.37 12.05 7.67 1.37 12.05 6.67 1.37 12.05 5.70 1.39 12.05 4.78 1.44 12.04 3.88 1.49 12.03 2.88 1.50 12.03 1.88 1.49 12.03 0.88 1.49 12.03 -0.12 1.49 12.03 -1.12 1.49 12.03 -2.13 1.49 12.03 -3.13 1.49 12.03 -4.13 1.49 12.03 6.01 -7.87 0.68 7.69 0.38 12.05 6.71 0.39 12.05 5.74 0.41 12.04 4.83 0.47 12.04 3.88 0.49 12.03 2.88 0.50 12.03 1.88 0.49 12.03 0.88 0.49 12.03 -0.12 0.49 12.03 -1.12 0.49 12.03 -2.13 0.49 12.03 -3.13 0.49 12.03 -4.13 0.49 12.03 4.16 1.00 -5.10 -5.00 -10.14 6.33 7.74 -0.59 12.04 6.80 -0.56 12.04 5.81 -0.55 12.04 4.87 -0.51 12.03 3.88 -0.51 12.03 2.88 -0.50 12.03 1.88 -0.50 12.03 0.88 -0.51 12.03 -0.12 -0.51 12.03 -1.12 -0.51 12.03 -2.12 -0.51 12.03 -3.12 -0.51 12.03 -4.13 -0.51 12.03 5.62 -1.06 8.00 0.00 2.76 -1.48 7.81 -1.55 12.04 6.87 -1.51 12.03 5.88 -1.51 12.03 4.88 -1.51 12.03 3.88 -1.51 12.03 2.88 -1.50 12.03 1.88 -1.50 12.03 0.88 -1.50 12.03 -0.12 -1.50 12.03 -1.12 -1.51 12.03 -2.12 -1.51 12.03 -3.12 -1.