# vtk DataFile Version 2.0
VTK from Matlab
ASCII
DATASET STRUCTURED_GRID
DIMENSIONS 2663 1 1
POINTS 2663 float
14.00 49.00 6.00 15.00 49.00 6.00 17.00 49.00 6.00 18.00 49.00 6.00 14.00 50.00 6.00 15.00 50.00 6.00 16.00 50.00 6.00 17.00 50.00 6.00 18.00 50.00 6.00 19.00 50.00 6.00 11.00 42.00 7.00 11.00 43.00 7.00 13.00 44.00 7.00 18.00 47.00 7.00 13.00 48.00 7.00 15.00 48.00 7.00 16.00 48.00 7.00 17.00 48.00 7.00 18.00 48.00 7.00 19.00 48.00 7.00 13.00 49.00 7.00 14.00 49.00 7.00 15.00 49.00 7.00 16.00 49.00 7.00 17.00 49.00 7.00 18.00 49.00 7.00 19.00 49.00 7.00 13.00 50.00 7.00 14.00 50.00 7.00 15.00 50.00 7.00 16.00 50.00 7.00 17.00 50.00 7.00 18.00 50.00 7.00 19.00 50.00 7.00 11.00 22.00 8.00 12.00 22.00 8.00 10.00 23.00 8.00 11.00 23.00 8.00 12.00 23.00 8.00 9.00 24.00 8.00 10.00 24.00 8.00 11.00 24.00 8.00 12.00 24.00 8.00 9.00 25.00 8.00 10.00 25.00 8.00 11.00 25.00 8.00 23.00 25.00 8.00 8.00 26.00 8.00 9.00 26.00 8.00 10.00 26.00 8.00 23.00 26.00 8.00 24.00 26.00 8.00 7.00 27.00 8.00 8.00 27.00 8.00 24.00 27.00 8.00 24.00 28.00 8.00 25.00 29.00 8.00 10.00 43.00 8.00 22.00 43.00 8.00 10.00 44.00 8.00 23.00 44.00 8.00 21.00 46.00 8.00 20.00 47.00 8.00 21.00 47.00 8.00 12.00 48.00 8.00 13.00 48.00 8.00 18.00 48.00 8.00 19.00 48.00 8.00 20.00 48.00 8.00 13.00 49.00 8.00 14.00 49.00 8.00 16.00 49.00 8.00 17.00 49.00 8.00 18.00 49.00 8.00 19.00 49.00 8.00 20.00 49.00 8.00 13.00 50.00 8.00 14.00 50.00 8.00 15.00 50.00 8.00 16.00 50.00 8.00 17.00 50.00 8.00 18.00 50.00 8.00 19.00 50.00 8.00 13.00 19.00 9.00 12.00 20.00 9.00 13.00 20.00 9.00 19.00 20.00 9.00 20.00 20.00 9.00 11.00 21.00 9.00 12.00 21.00 9.00 13.00 21.00 9.00 20.00 21.00 9.00 21.00 21.00 9.00 10.00 22.00 9.00 11.00 22.00 9.00 12.00 22.00 9.00 21.00 22.00 9.00 22.00 22.00 9.00 9.00 23.00 9.00 10.00 23.00 9.00 11.00 23.00 9.00 12.00 23.00 9.00 22.00 23.00 9.00 23.00 23.00 9.00 8.00 24.00 9.00 9.00 24.00 9.00 10.00 24.00 9.00 11.00 24.00 9.00 12.00 24.00 9.00 22.00 24.00 9.00 23.00 24.00 9.00 8.00 25.00 9.00 9.00 25.00 9.00 10.00 25.00 9.00 11.00 25.00 9.00 12.00 25.00 9.00 23.00 25.00 9.00 24.00 25.00 9.00 7.00 26.00 9.00 8.00 26.00 9.00 9.00 26.00 9.00 10.00 26.00 9.00 11.00 26.00 9.00 23.00 26.00 9.00 24.00 26.00 9.00 7.00 27.00 9.00 8.00 27.00 9.00 9.00 27.00 9.00 11.00 27.00 9.00 23.00 27.00 9.00 24.00 27.00 9.00 7.00 28.00 9.00 8.00 28.00 9.00 12.00 28.00 9.00 23.00 28.00 9.00 24.00 28.00 9.00 25.00 28.00 9.00 7.00 29.00 9.00 9.00 29.00 9.00 23.00 29.00 9.00 24.00 29.00 9.00 25.00 29.00 9.00 23.00 44.00 9.00 24.00 44.00 9.00 9.00 45.00 9.00 12.00 48.00 9.00 20.00 48.00 9.00 13.00 49.00 9.00 14.00 49.00 9.00 16.00 49.00 9.00 17.00 49.00 9.00 18.00 49.00 9.00 19.00 49.00 9.00 20.00 49.00 9.00 13.00 50.00 9.00 12.00 19.00 10.00 20.00 19.00 10.00 11.00 20.00 10.00 12.00 20.00 10.00 19.00 20.00 10.00 20.00 20.00 10.00 21.00 20.00 10.00 22.00 20.00 10.00 10.00 21.00 10.00 11.00 21.00 10.00 12.00 21.00 10.00 20.00 21.00 10.00 21.00 21.00 10.00 22.00 21.00 10.00 10.00 22.00 10.00 11.00 22.00 10.00 12.00 22.00 10.00 21.00 22.00 10.00 22.00 22.00 10.00 23.00 22.00 10.00 9.00 23.00 10.00 10.00 23.00 10.00 11.00 23.00 10.00 12.00 23.00 10.00 22.00 23.00 10.00 23.00 23.00 10.00 8.00 24.00 10.00 9.00 24.00 10.00 10.00 24.00 10.00 11.00 24.00 10.00 12.00 24.00 10.00 22.00 24.00 10.00 23.00 24.00 10.00 24.00 24.00 10.00 7.00 25.00 10.00 8.00 25.00 10.00 9.00 25.00 10.00 10.00 25.00 10.00 11.00 25.00 10.00 12.00 25.00 10.00 22.00 25.00 10.00 23.00 25.00 10.00 24.00 25.00 10.00 25.00 25.00 10.00 7.00 26.00 10.00 8.00 26.00 10.00 9.00 26.00 10.00 10.00 26.00 10.00 11.00 26.00 10.00 12.00 26.00 10.00 22.00 26.00 10.00 23.00 26.00 10.00 24.00 26.00 10.00 25.00 26.00 10.00 6.00 27.00 10.00 7.00 27.00 10.00 8.00 27.00 10.00 9.00 27.00 10.00 10.00 27.00 10.00 11.00 27.00 10.00 12.00 27.00 10.00 22.00 27.00 10.00 23.00 27.00 10.00 24.00 27.00 10.00 25.00 27.00 10.00 7.00 28.00 10.00 8.00 28.00 10.00 9.00 28.00 10.00 23.00 28.00 10.00 24.00 28.00 10.00 25.00 28.00 10.00 6.00 29.00 10.00 7.00 29.00 10.00 8.00 29.00 10.00 9.00 29.00 10.00 10.00 29.00 10.00 23.00 29.00 10.00 24.00 29.00 10.00 25.00 29.00 10.00 6.00 30.00 10.00 7.00 30.00 10.00 9.00 30.00 10.00 23.00 30.00 10.00 24.00 30.00 10.00 25.00 30.00 10.00 26.00 30.00 10.00 6.00 31.00 10.00 26.00 31.00 10.00 5.00 32.00 10.00 27.00 32.00 10.00 26.00 33.00 10.00 27.00 33.00 10.00 23.00 43.00 10.00 9.00 45.00 10.00 23.00 45.00 10.00 10.00 46.00 10.00 11.00 48.00 10.00 12.00 48.00 10.00 12.00 49.00 10.00 13.00 49.00 10.00 20.00 49.00 10.00 12.00 18.00 11.00 20.00 18.00 11.00 21.00 18.00 11.00 11.00 19.00 11.00 12.00 19.00 11.00 19.00 19.00 11.00 20.00 19.00 11.00 21.00 19.00 11.00 10.00 20.00 11.00 11.00 20.00 11.00 12.00 20.00 11.00 19.00 20.00 11.00 20.00 20.00 11.00 21.00 20.00 11.00 22.00 20.00 11.00 10.00 21.00 11.00 11.00 21.00 11.00 12.00 21.00 11.00 13.00 21.00 11.00 19.00 21.00 11.00 20.00 21.00 11.00 21.00 21.00 11.00 22.00 21.00 11.00 23.00 21.00 11.00 9.00 22.00 11.00 10.00 22.00 11.00 12.00 22.00 11.00 13.00 22.00 11.00 21.00 22.00 11.00 22.00 22.00 11.00 23.00 22.00 11.00 24.00 22.00 11.00 8.00 23.00 11.00 9.00 23.00 11.00 10.00 23.00 11.00 11.00 23.00 11.00 12.00 23.00 11.00 13.00 23.00 11.00 18.00 23.00 11.00 22.00 23.00 11.00 23.00 23.00 11.00 24.00 23.00 11.00 7.00 24.00 11.00 8.00 24.00 11.00 9.00 24.00 11.00 10.00 24.00 11.00 11.00 24.00 11.00 12.00 24.00 11.00 13.00 24.00 11.00 18.00 24.00 11.00 21.00 24.00 11.00 22.00 24.00 11.00 23.00 24.00 11.00 24.00 24.00 11.00 25.00 24.00 11.00 7.00 25.00 11.00 8.00 25.00 11.00 9.00 25.00 11.00 10.00 25.00 11.00 11.00 25.00 11.00 12.00 25.00 11.00 13.00 25.00 11.00 14.00 25.00 11.00 17.00 25.00 11.00 18.00 25.00 11.00 19.00 25.00 11.00 20.00 25.00 11.00 21.00 25.00 11.00 22.00 25.00 11.00 23.00 25.00 11.00 24.00 25.00 11.00 25.00 25.00 11.00 7.00 26.00 11.00 8.00 26.00 11.00 9.00 26.00 11.00 10.00 26.00 11.00 11.00 26.00 11.00 12.00 26.00 11.00 13.00 26.00 11.00 14.00 26.00 11.00 17.00 26.00 11.00 18.00 26.00 11.00 19.00 26.00 11.00 20.00 26.00 11.00 21.00 26.00 11.00 22.00 26.00 11.00 23.00 26.00 11.00 24.00 26.00 11.00 25.00 26.00 11.00 7.00 27.00 11.00 8.00 27.00 11.00 9.00 27.00 11.00 10.00 27.00 11.00 11.00 27.00 11.00 12.00 27.00 11.00 13.00 27.00 11.00 14.00 27.00 11.00 15.00 27.00 11.00 16.00 27.00 11.00 17.00 27.00 11.00 18.00 27.00 11.00 19.00 27.00 11.00 20.00 27.00 11.00 21.00 27.00 11.00 22.00 27.00 11.00 23.00 27.00 11.00 24.00 27.00 11.00 25.00 27.00 11.00 26.00 27.00 11.00 6.00 28.00 11.00 7.00 28.00 11.00 8.00 28.00 11.00 9.00 28.00 11.00 10.00 28.00 11.00 11.00 28.00 11.00 12.00 28.00 11.00 13.00 28.00 11.00 14.00 28.00 11.00 15.00 28.00 11.00 16.00 28.00 11.00 17.00 28.00 11.00 18.00 28.00 11.00 19.00 28.00 11.00 20.00 28.00 11.00 21.00 28.00 11.00 22.00 28.00 11.00 23.00 28.00 11.00 24.00 28.00 11.00 25.00 28.00 11.00 26.00 28.00 11.00 6.00 29.00 11.00 7.00 29.00 11.00 8.00 29.00 11.00 9.00 29.00 11.00 12.00 29.00 11.00 13.00 29.00 11.00 14.00 29.00 11.00 21.00 29.00 11.00 22.00 29.00 11.00 23.00 29.00 11.00 24.00 29.00 11.00 25.00 29.00 11.00 26.00 29.00 11.00 6.00 30.00 11.00 7.00 30.00 11.00 8.00 30.00 11.00 22.00 30.00 11.00 23.00 30.00 11.00 24.00 30.00 11.00 25.00 30.00 11.00 26.00 30.00 11.00 6.00 31.00 11.00 7.00 31.00 11.00 8.00 31.00 11.00 23.00 31.00 11.00 24.00 31.00 11.00 25.00 31.00 11.00 26.00 31.00 11.00 5.00 32.00 11.00 6.00 32.00 11.00 7.00 32.00 11.00 23.00 32.00 11.00 24.00 32.00 11.00 25.00 32.00 11.00 26.00 32.00 11.00 27.00 32.00 11.00 5.00 33.00 11.00 6.00 33.00 11.00 7.00 33.00 11.00 24.00 33.00 11.00 25.00 33.00 11.00 26.00 33.00 11.00 27.00 33.00 11.00 5.00 34.00 11.00 6.00 34.00 11.00 7.00 34.00 11.00 24.00 34.00 11.00 25.00 34.00 11.00 26.00 34.00 11.00 27.00 34.00 11.00 5.00 35.00 11.00 6.00 35.00 11.00 7.00 35.00 11.00 25.00 35.00 11.00 26.00 35.00 11.00 27.00 35.00 11.00 25.00 36.00 11.00 26.00 36.00 11.00 27.00 36.00 11.00 28.00 36.00 11.00 6.00 44.00 11.00 11.00 48.00 11.00 13.00 49.00 11.00 19.00 49.00 11.00 12.00 17.00 12.00 11.00 18.00 12.00 12.00 18.00 12.00 20.00 18.00 12.00 21.00 18.00 12.00 10.00 19.00 12.00 11.00 19.00 12.00 12.00 19.00 12.00 19.00 19.00 12.00 20.00 19.00 12.00 21.00 19.00 12.00 22.00 19.00 12.00 10.00 20.00 12.00 11.00 20.00 12.00 12.00 20.00 12.00 18.00 20.00 12.00 19.00 20.00 12.00 20.00 20.00 12.00 21.00 20.00 12.00 22.00 20.00 12.00 23.00 20.00 12.00 9.00 21.00 12.00 10.00 21.00 12.00 11.00 21.00 12.00 12.00 21.00 12.00 13.00 21.00 12.00 14.00 21.00 12.00 18.00 21.00 12.00 19.00 21.00 12.00 20.00 21.00 12.00 21.00 21.00 12.00 22.00 21.00 12.00 23.00 21.00 12.00 24.00 21.00 12.00 9.00 22.00 12.00 10.00 22.00 12.00 11.00 22.00 12.00 12.00 22.00 12.00 13.00 22.00 12.00 14.00 22.00 12.00 15.00 22.00 12.00 16.00 22.00 12.00 17.00 22.00 12.00 18.00 22.00 12.00 19.00 22.00 12.00 20.00 22.00 12.00 21.00 22.00 12.00 22.00 22.00 12.00 23.00 22.00 12.00 24.00 22.00 12.00 8.00 23.00 12.00 9.00 23.00 12.00 10.00 23.00 12.00 11.00 23.00 12.00 12.00 23.00 12.00 13.00 23.00 12.00 14.00 23.00 12.00 15.00 23.00 12.00 16.00 23.00 12.00 17.00 23.00 12.00 18.00 23.00 12.00 19.00 23.00 12.00 23.00 23.00 12.00 24.00 23.00 12.00 25.00 23.00 12.00 8.00 24.00 12.00 9.00 24.00 12.00 10.00 24.00 12.00 11.00 24.00 12.00 12.00 24.00 12.00 13.00 24.00 12.00 14.00 24.00 12.00 15.00 24.00 12.00 16.00 24.00 12.00 17.00 24.00 12.00 18.00 24.00 12.00 19.00 24.00 12.00 20.00 24.00 12.00 21.00 24.00 12.00 22.00 24.00 12.00 23.00 24.00 12.00 24.00 24.00 12.00 25.00 24.00 12.00 8.00 25.00 12.00 9.00 25.00 12.00 10.00 25.00 12.00 11.00 25.00 12.00 12.00 25.00 12.00 13.00 25.00 12.00 14.00 25.00 12.00 15.00 25.00 12.00 16.00 25.00 12.00 17.00 25.00 12.00 18.00 25.00 12.00 19.00 25.00 12.00 20.00 25.00 12.00 21.00 25.00 12.00 22.00 25.00 12.00 23.00 25.00 12.00 24.00 25.00 12.00 25.00 25.00 12.00 26.00 25.00 12.00 8.00 26.00 12.00 9.00 26.00 12.00 10.00 26.00 12.00 11.00 26.00 12.00 12.00 26.00 12.00 13.00 26.00 12.00 14.00 26.00 12.00 15.00 26.00 12.00 16.00 26.00 12.00 17.00 26.00 12.00 18.00 26.00 12.00 19.00 26.0
[...]
POINT_DATA 2663
VECTORS vector_field float
-0.55 1.70 -3.00 -1.70 0.55 -3.00 -2.85 0.82 -3.00 -4.21 1.51 -3.00 1.74 2.94 -3.00 -0.99 0.99 -3.00 -0.08 2.97 -3.00 -0.86 2.98 -3.00 -1.75 2.97 -3.00 -2.73 2.97 -3.00 -1.13 0.98 -1.91 -1.13 -0.01 -1.92 -0.45 -2.02 -0.87 1.73 -0.79 -1.34 0.00 -1.54 -1.29 -0.35 -2.00 -1.07 -1.38 -2.00 -1.15 -2.64 -2.00 -1.66 -0.50 -0.09 -2.00 -0.74 -0.89 -1.99 -2.46 0.06 -0.46 -1.71 0.74 -3.27 -2.04 0.91 -3.06 -2.65 0.28 -3.93 -3.19 0.82 -4.00 -4.28 0.99 -4.00 -5.06 1.49 -4.00 -2.04 0.60 -0.15 -0.83 0.33 -4.00 -1.71 0.43 -4.00 -2.67 0.43 -4.00 -0.94 2.98 -4.00 -1.72 2.97 -4.00 -2.71 2.97 -4.00 -3.11 -2.00 2.09 -4.00 -2.66 2.37 -2.06 -2.33 1.89 -3.02 -2.33 1.86 -4.53 -2.98 2.14 -1.16 -3.10 1.84 -2.07 -3.29 1.87 -3.06 -3.32 1.89 -4.01 -3.32 1.84 -3.00 -1.33 1.94 -2.08 -4.17 1.80 -3.07 -4.25 1.85 2.00 -1.23 0.95 -2.02 -0.60 -0.10 -1.93 2.31 -3.06 -2.83 2.39 -3.10 5.00 -0.97 4.65 3.00 0.08 1.18 -0.01 1.27 -3.00 -0.95 1.07 -3.00 3.03 0.71 0.79 3.00 1.00 0.94 2.00 -0.75 0.72 -0.19 -0.00 -2.95 7.10 -2.00 -3.49 -0.19 -1.01 -2.84 4.05 1.00 -1.63 -2.28 -0.00 -2.00 -1.51 -1.00 -2.37 -2.28 -1.00 -2.18 0.54 -1.15 -2.00 -0.43 -1.67 -2.00 0.83 -0.23 -3.00 -0.67 -0.89 -2.99 -1.11 -1.24 -2.77 -2.73 -0.22 -1.96 -1.00 -2.10 -2.01 -2.69 -2.93 -2.92 -3.17 0.66 -5.00 -4.18 0.67 -5.00 -5.19 0.74 -5.00 -5.76 1.32 -5.00 -2.00 0.49 -0.74 -3.00 -0.96 -1.28 -2.10 -0.12 -4.12 -3.05 -0.16 -4.12 -3.59 0.18 -5.00 -1.80 2.98 -5.00 -2.72 2.98 -5.00 -5.00 -1.62 3.79 -4.00 -0.47 1.81 -5.80 -0.92 2.30 5.47 -1.00 2.36 4.00 -0.50 1.93 -3.00 -1.63 1.42 -4.00 -1.58 1.60 -5.00 -1.58 1.61 3.07 -1.01 0.94 5.00 -1.34 4.28 -2.08 -1.40 0.96 -3.00 -1.38 0.84 -4.00 -2.61 1.39 5.10 -1.45 4.42 4.07 -1.34 4.17 -1.07 -2.35 0.91 -2.09 -2.33 0.91 -3.07 -2.33 0.90 -4.00 -2.34 0.81 4.04 -2.23 3.95 3.03 -2.21 3.93 -2.40 -1.00 1.53 -1.33 -3.01 0.94 -2.14 -3.16 0.87 -3.08 -3.24 0.85 -4.08 -3.21 0.83 4.02 -3.15 3.74 2.00 -1.08 0.73 -2.00 -1.12 0.80 -3.88 -1.73 1.63 -4.76 -0.43 4.52 -3.39 -4.00 0.96 -5.00 -4.17 1.57 5.01 -1.01 4.27 3.00 -1.36 2.95 -2.00 -0.80 0.79 -3.00 -0.59 0.72 -4.00 -2.62 2.34 -4.00 -0.18 -1.72 -3.14 -5.14 0.84 5.00 -0.90 3.63 3.03 0.06 1.03 -2.00 -1.61 0.24 -3.00 -3.61 2.36 -4.00 -3.36 2.07 -3.92 1.30 -4.07 5.00 -1.65 3.84 3.00 -1.31 1.58 0.00 0.08 -4.00 -0.92 0.43 -4.09 -4.86 -0.07 -4.01 5.00 0.67 1.62 4.01 0.89 1.68 2.00 0.40 -0.14 0.17 -0.94 -4.04 -5.00 -1.15 2.47 5.00 -0.36 1.61 4.00 -0.40 1.61 3.01 -0.14 1.63 4.33 1.01 -1.90 4.00 0.78 -1.39 0.00 2.49 -0.37 -0.44 -0.38 -3.00 -1.53 -0.97 -3.98 -1.57 -1.27 -3.00 -2.77 -1.09 -3.00 -2.76 -3.00 -3.00 -1.05 -1.50 -4.00 -1.19 0.00 -4.60 -0.65 -0.99 -4.86 1.00 2.67 -2.48 -2.00 0.70 -1.38 -4.83 0.12 1.29 4.01 -0.02 1.95 -3.00 -0.18 0.93 -4.34 -0.24 1.00 5.09 -1.00 2.00 4.48 -1.00 1.41 3.57 -1.00 1.42 2.80 -1.00 1.53 -3.06 -0.99 1.07 -4.01 -1.00 1.37 -5.17 -1.03 1.23 6.00 -1.37 3.45 5.00 -0.63 3.91 4.10 -0.46 3.45 -4.25 -1.58 1.40 -4.97 -1.96 1.42 -3.77 -1.14 5.20 5.10 -1.47 3.47 4.04 -1.23 2.93 3.05 -1.31 3.06 -1.14 -2.21 -0.11 -3.15 -2.37 1.00 -4.49 -2.98 1.30 -5.88 -2.91 1.37 4.04 -2.24 2.99 3.04 -2.23 2.96 -1.50 -3.00 0.73 -3.00 -2.56 1.18 -3.12 -3.01 0.86 -5.00 -3.46 1.41 -6.00 -3.49 1.27 4.12 -3.38 3.38 3.02 -3.10 2.66 2.05 -3.23 2.97 -2.27 -0.12 3.22 -2.87 -1.84 0.62 -3.43 -0.37 3.43 -3.99 -0.48 3.60 -4.62 -0.62 3.78 -7.06 -1.93 4.45 6.64 0.07 3.87 5.00 0.12 2.98 4.00 0.11 2.70 1.01 -2.37 0.99 -2.94 -0.90 2.84 -4.00 -0.70 2.59 -2.86 -1.02 3.15 -3.47 -1.15 3.48 -4.44 -1.48 3.77 -5.45 -1.54 3.79 6.90 -0.88 4.20 5.79 -0.50 3.29 4.00 -0.06 2.74 3.00 -0.10 2.75 -1.70 -1.12 1.05 -3.38 -1.48 2.06 -4.22 -1.40 1.93 -5.05 -1.49 2.42 -3.40 -2.00 3.46 -4.36 -2.10 3.50 -4.99 -2.24 3.93 6.99 -1.50 3.48 5.00 -0.74 2.86 4.03 -0.50 2.60 3.00 -0.38 2.36 -3.37 -1.88 1.67 -5.55 -2.19 2.13 -5.08 -2.46 2.56 5.88 -1.75 3.53 4.00 -1.27 2.67 3.00 -0.15 1.28 -1.01 1.00 -2.00 -3.00 -1.81 1.71 -4.21 -2.37 1.72 -3.80 -1.82 3.87 -2.82 -0.73 -5.02 5.00 -0.35 0.61 3.00 -0.31 -1.20 3.03 -0.10 0.69 -1.04 0.00 -2.03 -2.02 0.00 -2.02 -5.00 -3.29 2.72 5.00 -1.45 0.60 4.00 -1.39 0.61 3.00 -2.02 0.69 2.00 -2.12 0.71 -1.06 -1.00 -2.05 2.19 -1.11 1.11 -0.62 -1.98 -2.17 1.10 -2.00 0.91 2.11 -3.10 1.01 2.00 -1.91 0.74 4.16 1.00 -5.10 0.00 2.76 -1.48 0.14 2.06 0.72 0.00 0.75 -3.11 -0.55 0.57 -4.05 -0.61 -0.24 -4.00 -1.70 -0.08 -3.85 -1.66 -1.19 -4.00 2.00 0.79 -0.64 -4.00 -0.73 1.83 4.00 0.55 1.00 3.00 0.71 0.97 -3.88 0.20 0.28 -4.00 -1.29 1.73 5.03 -0.37 0.88 4.01 -0.09 1.00 3.02 -0.00 1.00 -3.00 -0.27 0.24 -4.73 0.02 0.12 -5.54 -0.05 -0.00 4.66 0.03 6.12 4.18 -1.01 1.00 3.79 -1.00 0.98 4.00 -0.25 2.53 -3.90 -1.00 0.24 -5.47 -1.20 -0.10 -3.65 -0.70 4.27 -4.59 -0.55 4.24 4.57 -0.82 6.09 4.34 -2.04 1.00 5.00 -1.38 2.52 4.09 -0.39 2.28 3.09 -0.42 2.33 -1.39 0.70 4.06 -3.94 -1.99 0.55 -3.68 -1.20 4.20 -4.62 -0.70 4.21 5.00 -1.57 2.95 4.03 -1.23 1.93 3.04 -1.28 2.01 2.03 -1.22 1.84 -2.00 -1.02 0.88 -2.72 -0.55 5.92 -2.36 -0.25 4.04 -5.18 -2.71 0.39 -3.75 -1.68 4.22 -4.05 -0.86 4.23 1.78 1.06 5.89 4.09 -2.39 2.29 3.04 -2.24 1.99 2.02 -2.14 1.72 -1.36 0.78 2.29 -2.43 0.56 2.50 -2.85 0.55 2.61 -3.00 0.21 3.03 -3.76 -0.45 3.44 -4.23 -1.04 3.92 -3.40 -0.97 4.14 2.06 0.67 5.67 5.09 1.75 5.17 3.29 1.31 4.86 3.07 -3.17 1.97 2.05 -3.23 1.96 1.06 -3.16 1.90 -2.63 -0.11 2.19 -2.17 -0.16 2.25 -2.17 -0.30 2.81 -2.83 -0.38 3.04 -3.90 -0.69 3.05 -4.56 -0.93 3.19 -3.56 -1.54 4.12 -4.16 -1.44 4.21 1.92 0.19 6.20 2.19 -0.18 5.59 1.91 -0.23 5.35 4.07 -0.18 5.02 3.83 0.24 4.64 3.14 0.43 4.58 3.42 1.07 4.27 4.96 0.16 3.16 3.00 0.40 1.90 -1.75 -0.94 1.97 -1.62 -1.04 2.25 -2.18 -1.11 2.68 -3.05 -1.15 2.83 -3.70 -1.30 3.07 -3.97 -1.13 3.45 -3.71 -1.33 4.18 -3.09 -1.00 5.07 1.02 -0.01 6.61 1.53 -0.90 6.04 1.74 -1.07 5.39 2.40 -0.95 5.10 3.67 -0.64 4.55 3.40 -0.28 4.44 2.64 -0.08 4.31 5.00 -0.55 3.12 3.96 -0.01 2.29 -1.95 -1.74 1.99 -3.99 -1.78 1.76 -2.76 -1.84 2.27 -3.13 -1.95 2.74 -3.53 -1.97 3.10 -3.35 -1.72 4.01 -3.44 -1.58 4.75 2.86 -0.73 6.79 1.91 -0.63 6.77 1.35 -0.78 6.70 0.77 -0.96 6.64 1.01 -1.80 6.15 1.48 -2.03 5.55 3.42 -1.84 4.90 3.57 -1.42 4.49 3.52 -1.09 4.32 6.00 -1.22 2.84 4.00 -0.51 1.90 3.00 -0.46 1.89 2.00 -0.46 1.94 -2.13 -1.32 0.72 -3.48 -2.03 0.77 -4.05 -1.98 1.43 -5.24 -2.19 1.52 -3.96 -1.68 2.79 -3.62 -2.52 3.24 -3.56 -2.58 3.98 -2.68 -2.21 5.19 2.85 -1.62 6.78 1.84 -1.61 6.78 1.19 -1.70 6.72 0.63 -1.91 6.66 0.13 -2.07 6.60 0.65 -2.85 6.03 3.89 -2.59 4.69 3.64 -2.28 4.45 3.99 -1.75 4.06 6.00 -2.12 3.10 4.99 -1.80 2.48 3.00 -1.06 1.72 2.00 -0.70 0.85 -2.01 -2.02 0.78 -3.25 -2.51 0.77 -4.60 -3.11 0.78 -5.02 -1.31 4.00 -4.55 -3.17 3.53 -1.12 -3.09 5.98 2.74 -2.60 6.79 4.42 -2.88 4.23 6.91 -2.55 3.88 6.00 -3.10 2.45 4.00 -1.56 1.17 3.00 -1.00 0.87 2.00 0.25 0.28 -2.01 -2.86 0.79 -3.10 -3.03 0.80 -4.46 -3.68 1.05 7.00 -3.95 2.36 5.00 -2.24 0.87 4.00 -1.55 0.75 3.00 -0.90 0.48 2.00 -0.80 0.11 -1.47 -0.99 -3.16 -3.01 -3.78 0.85 -4.01 -3.00 4.00 5.00 -2.75 -0.18 4.00 -2.71 0.28 3.00 -2.01 0.01 2.15 -1.13 0.19 -1.00 -1.64 -2.39 -1.99 -1.80 -2.76 -2.83 -1.94 -3.06 5.00 -3.73 -0.08 4.00 -3.08 -0.11 3.21 -2.21 0.24 2.17 -2.28 0.26 1.18 -2.26 0.27 -1.52 -1.74 -1.46 -2.52 -2.00 0.85 -2.99 -2.62 -2.96 4.10 -3.20 0.12 3.10 -3.18 0.10 2.13 -3.27 0.22 1.14 -3.32 0.29 -2.00 -0.89 1.21 -3.00 -1.03 1.21 -4.00 -3.07 1.26 4.12 -4.20 0.13 3.13 -4.22 0.16 2.15 -4.23 0.19 2.01 -0.03 -0.28 -2.00 -1.69 1.17 -3.00 -1.83 1.20 -4.00 -1.98 1.21 3.38 -5.00 0.09 3.02 -1.08 -0.16 2.01 -0.88 -0.31 4.02 -2.07 -0.05 3.01 -1.86 -0.33 2.01 -1.85 -0.34 1.01 -1.87 -0.32 -3.18 -0.00 3.39 -0.76 0.95 -4.76 -1.95 -0.93 -5.00 -0.25 -1.53 -6.00 -4.00 0.18 0.87 -3.00 -0.68 0.78 -4.07 -0.78 1.13 4.99 -0.75 3.35 3.00 0.66 -0.00 -2.06 -1.00 0.70 -3.70 -0.92 1.66 -4.00 -1.69 0.92 4.40 0.87 5.05 5.00 -0.40 0.37 3.17 -0.04 -0.00 2.55 0.00 -0.40 -3.00 -0.41 -0.77 -4.21 -0.14 -0.84 -4.81 -1.89 3.48 4.89 0.20 4.91 4.32 0.23 5.00 3.66 0.08 5.12 3.31 -1.04 -0.00 4.09 0.51 1.52 3.00 0.43 1.95 -3.19 -0.59 -0.53 -1.72 -0.27 3.22 -2.72 -0.57 3.26 -3.62 0.18 3.19 -3.37 0.91 3.29 -4.07 0.56 3.67 4.58 0.02 4.75 4.25 -0.53 4.93 3.53 -0.54 5.06 4.00 -2.17 0.40 4.09 -0.47 1.47 3.07 -0.40 1.23 2.01 -0.02 0.43 -1.46 0.91 2.95 -2.28 0.60 3.10 -2.86 -0.74 3.22 -3.04 -0.05 3.24 -3.49 0.12 3.19 -4.02 -0.06 3.45 -2.38 0.45 5.02 2.09 2.39 5.53 2.18 1.85 5.11 1.86 1.51 4.99 4.30 -0.11 4.60 3.49 -0.98 5.00 5.00 -2.63 1.51 4.09 -1.39 1.28 3.04 -1.23 0.94 2.02 -1.18 0.78 -1.09 1.21 2.00 -1.74 0.67 2.38 -2.58 0.33 2.58 -3.45 0.15 2.71 -3.01 -0.86 3.23 -3.30 -0.38 3.18 -3.61 -0.50 3.65 -0.54 2.30 5.65 1.59 3.09 5.69 1.96 1.64 5.18 1.61 1.52 4.96 4.34 0.48 4.39 3.12 -2.47 1.73 2.01 -2.02 0.51 2.01 -0.61 1.26 -1.59 0.56 1.69 -2.01 0.21 2.02 -2.82 0.07 2.13 -3.39 -0.50 2.56 -2.87 -1.10 3.11 -2.98 -0.75 3.27 -3.42 -0.92 3.61 1.80 2.23 5.80 1.72 2.05 5.66 1.96 0.91 5.20 1.73 0.97 4.90 2.61 0.52 4.28 4.28 0.29 4.15 3.81 1.06 3.93 2.87 1.15 3.81 2.04 1.37 3.59 4.01 0.96 3.31 2.00 -1.41 0.06 -1.79 -0.19 1.39 -1.93 -0.38 2.00 -2.62 -0.48 2.11 -3.64 -0.48 2.11 -2.37 -0.69 3.26 -1.10 -0.33 4.32 -1.87 -0.43 4.51 1.04 1.03 5.81 1.73 1.05 5.65 1.32 0.71 5.50 1.06 0.11 5.14 1.06 -0.09 4.66 2.54 -0.19 4.13 3.65 0.18 3.65 3.02 0.54 3.50 2.32 0.70 3.45 2.24 1.06 3.22 4.00 0.77 1.40 2.00 0.78 0.81 -1.14 -0.94 1.74 -1.89 -0.99 1.97 -2.75 -1.28 2.05 -2.66 -0.87 2.84 -2.02 -0.42 4.02 -1.44 -0.38 4.59 -0.04 -0.24 5.35 2.02 0.31 5.77 1.25 0.26 5.72 0.87 0.01 5.63 0.40 -0.31 5.47 0.48 -0.88 5.06 1.11 -0.96 4.35 3.45 -0.53 3.52 2.73 -0.31 3.45 2.31 -0.18 3.38 2.75 0.09 3.18 3.97 0.02 1.30 2.44 0.29 1.26 -0.11 -1.05 2.28 -0.68 -1.27 2.37 -1.88 -1.89 2.01 -1.95 -1.31 2.90 -2.31 -1.44 3.10 -1.14 -1.07 4.45 -0.61 -1.15 5.09 -0.87 -0.76 5.11 1.76 -0.65 5.79 0.93 -0.62 5.76 0.68 -0.93 5.66 0.15 -1.08 5.59 0.27 -1.79 5.11 1.89 -1.61 4.37 3.00 -1.33 3.57 2.50 -1.24 3.44 1.62 -1.19 3.42 5.00 -0.79 2.63 3.88 -0.77 1.50 2.00 -0.37 0.94 -2.25 -1.75 0.02 -3.11 -1.94 0.54 -2.88 -0.94 2.28 -5.00 -0.42 3.03 -3.79 -1.29 2.29 -2.44 -2.13 3.19 -1.18 -2.01 4.57 -0.55 -2.01 5.17 2.49 -1.64 5.79 1.70 -1.58 5.79 0.94 -1.62 5.75 0.60 -1.89 5.67 0.14 -2.06 5.60 -0.24 -2.49 5.26 1.65 -2.44 4.59 2.52 -2.31 3.80 2.73 -2.07 3.38 2.18 -1.91 3.31 1.66 -1.70 3.16 4.02 -1.64 1.75 2.00 -1.40 0.91 -2.00 -1.04 3.05 -3.04 -2.57 0.25 -4.01 -1.29 3.00 -5.07 -1.30 3.02 -6.08 -1.31 3.03 -5.13 -1.60 3.08 -1.30 -2.97 4.61 -0.56 -2.93 5.19 -0.97 -2.69 5.13 1.59 -2.55 5.79 0.76 -2.56 5.77 0.82 -2.97 5.63 0.33 -3.12 5.56 -0.38 -3.28 5.39 1.58 -3.24 4.78 2.80 -3.20 3.75 3.34 -2.75 3.27 3.13 -2.37 3.01 2.59 -2.26 2.98 3.00 -0.55 0.71 2.00 -0.33 0.95 -1.97 -1.98 3.73 -3.00 -2.00 3.50 -4.00 -2.00 3.34 -5.07 -2.30 3.02 -6.98 -2.51 3.19 -2.62 -4.04 3.93 -0.74 -3.95 5.18 -1.20 -3.70 5.15 1.28 -3.48 5.77 4.47 -3.63 3.24 4.23 -3.25 3.01 3.44 -3.23 3.01 2.56 -3.22 3.03 3.00 -1.36 0.38 2.00 -0.88 -0.07 -2.25 -1.00 0.50 -2.99 -3.00 3.58 -3.98 -2.99 3.68 4.44 -4.19 3.05 4.03 -4.23 3.08 4.00 -2.82 1.00 3.00 -1.55 0.14 2.00 -1.15 -0.37 -2.29 -2.00 0.46 -3.26 -2.00 0.53 -3.95 -3.92 3.85 5.00 -2.98 0.38 4.00 -2.53 -0.28 3.07 -2.00 0.05 2.34 -2.00 0.02 1.20 -2.15 -0.64 -2.00 -1.80 1.21 -3.00 -2.97 1.44 -3.99 -3.71 1.48 -4.27 -3.00 0.71 5.24 -3.00 -0.33 4.32 -3.00 -0.54 3.29 -3.01 -0.60 2.20 -3.17 -0.66 1.17 -3.00 -0.25 -2.00 -2.41 0.88 -3.00 -0.71 0.21 -4.00 -3.14 1.63 -5.00 -3.17 1.67 4.15 -4.28 -0.76 3.15 -4.28 -0.76 2.13 -4.18 -0.51 2.01 0.10 -1.16 -2.00 -1.88 0.31 -3.00 -1.52 0.14 -4.00 -1.74 0.20 -5.00 -1.56 0.17 4.14 -5.24 -0.80 3.25 -5.10 -0.84 3.01 -1.01 -1.13 2.01 -0.89 -1.30 -2.00 -2.54 0.14 -3.00 -2.46 0.12 -4.00 -2.42 0.11 4.01 -2.09 -1.10 3.01 -1.88 -1.30 2.01 -1.88 -1.31 1.01 -1.89 -1.30 3.01 -2.88 -1.31 2.01 -2.87 -1.31 -1.96 1.14 3.98 -3.00 1.13 3.91 -3.03 1.23 4.03 -2.02 1.01 2.30 -2.98 0.13 3.96 -3.99 0.13 3.93 -2.67 -1.13 3.15 -3.00 0.26 2.10 -0.00 1.96 -4.99 -2.69 -0.07 -5.90 3.00 0.74 -1.86 -2.87 0.08 -0.13 -4.02 0.15 0.07 2.78 1.40 4.64 2.00 -0.39 0.81 -2.00 -0.37 -0.36 -3.00 -0.84 -0.05 -4.99 -0.20 1.70 3.07 1.14 4.14 3.99 -0.77 2.25 2.00 0.77 -1.00 -2.04 -1.00 -0.31 -3.37 -1.61 0.59 -4.93 -0.96 2.11 -5.45 -0.61 2.82 4.12 0.72 4.03 3.51 0.80 4.07 4.94 -0.80 3.21 2.01 -0.47 -1.00 -3.05 -0.21 -1.79 -3.17 -1.20 2.69 -2.64 1.09 2.58 -3.10 1.73 2.54 -4.12 -0.23 3.40 2.95 1.35 4.13 4.01 0.16 3.89 3.34 0.21 4.01 2.54 0.11 4.09 2.31 -1.04 -1.00 3.01 0.94 -0.31 2.10 1.00 -0.31 -1.82 0.26 2.22 -2.40 0.30 2.19 -2.20 0.95 2.33 -3.10 0.87 2.43 -3.42 0.93 2.86 -2.38 1.32 4.04 -2.36 1.66 4.75 1.94 2.45 4.28 1.86 1.28 4.25 3.55 0.21 3.73 3.17 -0.25 3.81 2.42 -0.57 4.03 4.00 -2.31 2.12 3.01 -0.03 -0.45 2.00 -0.00 -0.49 -2.11 0.60 2.11 -2.34 0.34 2.20 -2.42 0.15 2.19 -2.81 0.19 2.57 -3.49 0.17 2.78 -1.47 0.98 4.58 0.82 4.24 4.80 1.82 1.31 4.39 1.80 1.38 4.03 1.09 0.88 4.04 3.38 -0.12 3.67 5.00 -1.72 0.68 4.00 -1.69 0.86 4.00 -0.56 1.50 2.63 -0.94 0.58 2.00 -0.65 1.37 -2.45 0.27 1.64 -2.37 -0.36 2.13 -2.44 -0.48 2.17 -2.70 -0.69 2.63 -2.14 0.42 3.14 -1.55 0.43 4.43 1.29 3.20 4.75 2.11 1.48 4.12 1.49 1.55 4.00 0.85 1.40 3.83 3.70 0.26 3.52 5.45 2.70 3.98 3.32 2.29 2.98 3.86 2.00 4.26 2.34 2.82 3.95 1.07 -2.27 0.13 -2.56 -0.15 1.31 -3.34 -0.68 1.67 -2.38 -0.95 2.14 -0.93 0.31 3.34 -1.26 0.14 3.92 1.92 2.26 4.81 1.76 2.04 4.66 1.23 1.74 4.53 0.82 1.25 4.24 0.85 0.94 3.84 2.28 0.41 3.28 3.59 0.97 2.98 2.70 1.16 2.71 1.93 1.33 2.59 1.30 1.38 2.70 3.06 0.93 2.55 2.00 1.00 1.76 -2.66 -0.55 1.11 -2.36 -0.18 1.92 -0.64 0.42 3.43 -0.76 0.49 3.93 -1.23 0.12 3.97 2.46 1.14 4.71 1.77 1.04 4.65 1.08 0.96 4.61 0.20 0.83 4.56 -0.22 0.33 4.26 0.32 -0.16 3.54 3.29 0.28 2.59 2.62 0.44 2.53 1.72 0.59 2.48 1.07 0.45 2.55 0.65 0.63 2.55 2.51 0.08 0.56 -1.42 -0.58 1.31 -2.00 -0.42 1.80 -0.97 -0.31 3.07 -0.43 -0.21 3.69 -0.85 -0.33 3.90 -1.20 0.12 4.10 1.81 0.38 4.79 1.43 0.18 4.69 0.90 0.01 4.63 0.10 -0.05 4.61 -0.42 -0.45 4.37 0.46 -0.90 3.76 3.12 -0.36 2.53 2.40 -0.37 2.48 1.66 -0.28 2.44 0.96 -0.28 2.43 4.00 -0.30 0.53 -1.31 -1.06 1.82 -1.59 -1.15 2.12 -0.22 -1.03 3.50 0.15 -1.11 4.06 -0.61 -1.14 4.10 -1.06 -0.82 4.08 1.77 -0.65 4.79 0.87 -0.61 4.77 0.78 -0.96 4.64 0.14 -1.06 4.60 -0.40 -1.37 4.36 1.62 -1.42 3.60 2.50 -1.32 2.80 2.42 -1.18 2.44 1.72 -1.09 2.38 0.69 -1.08 2.39 0.94 -0.37 2.09 -0.41 -1.64 1.34 -0.78 -1.87 1.80 -2.92 -0.83 2.06 -3.28 -1.14 2.27 0.05 -1.98 3.75 0.27 -2.01 4.16 -0.45 -1.93 4.18 -1.19 -1.82 4.12 1.59 -1.65 4.79 0.68 -1.55 4.79 0.74 -1.95 4.65 0.35 -2.12 4.56 -0.56 -2.16 4.51 0.36 -2.07 4.36 2.17 -2.31 3.01 2.52 -2.10 2.42 1.84 -2.00 2.37 1.33 -1.76 2.28 0.84 -1.32 2.16 -2.01 -1.01 2.00 -3.00 -1.00 2.27 -3.85 -1.53 2.29 -5.12 -1.31 2.06 -5.99 -1.46 2.17 -4.02 -1.70 3.10 -0.19 -2.97 4.06 -0.46 -2.81 4.20 -1.14 -2.71 4.14 0.26 -2.31 4.47 0.75 -2.52 4.75 1.01 -3.01 4.66 0.27 -3.09 4.59 -0.54 -3.15 4.53 0.39 -3.02 4.49 1.48 -3.14 3.56 2.62 -3.01 2.44 1.92 -2.97 2.36 1.93 -2.34 2.09 1.28 -2.09 2.16 2.14 -1.16 -0.09 -2.00 -2.05 2.15 -2.95 -1.92 2.86 -3.99 -2.00 2.62 -5.08 -2.30 2.07 -5.11 -2.57 2.19 -1.69 -3.28 3.62 0.20 -3.71 4.24 -0.32 -3.61 4.20 -0.95 -3.57 4.23 0.14 -3.05 4.56 0.32 -3.12 5.14 -1.01 -2.80 5.89 -0.70 -3.64 4.95 -0.23 -4.19 4.49 0.79 -3.93 4.59 1.19 -4.04 3.83 3.26 -3.70 2.32 3.15 -3.18 2.05 2.18 -2.94 2.34 4.00 -1.38 2.59 2.24 -1.18 0.09 -2.57 -3.00 2.18 -3.00 -3.03 2.03 -3.94 -2.94 2.84 -4.94 -3.00 2.70 -4.09 -3.05 2.97 -0.37 -4.11 4.63 0.31 -4.25 4.54 -0.13 -4.57 4.27 4.08 -3.87 2.55 4.37 -4.13 2.38 5.00 -3.69 0.52 3.57 -2.58 0.06 2.25 -2.29 0.00 2.00 -2.05 2.68 -2.00 -0.92 0.90 -2.16 -2.00 -0.19 -3.55 -3.90 2.09 -3.14 -3.52 4.16 -2.71 -3.73 4.07 5.18 -3.35 0.02 4.37 -3.07 0.11 3.21 -3.17 0.01 3.00 -3.11 2.69 2.00 -2.67 1.68 -2.00 -1.84 0.33 -3.00 -2.02 0.81 -3.23 -2.37 3.00 -4.00 -2.32 3.01 5.00 -4.29 0.59 4.00 -4.46 0.91 3.00 -3.74 1.08 2.00 -2.19 0.49 -2.00 -2.54 -0.05 -3.00 -2.72 0.09 -3.58 -3.42 2.98 -4.00 -2.53 3.40 4.09 -4.00 -0.16 3.30 -4.00 -1.03 3.00 -2.60 0.43 2.00 -2.65 0.23 -2.00 -2.93 -0.30 -3.00 -3.30 -0.17 -4.00 -3.31 -0.16 4.19 -5.00 -1.17 3.16 -5.15 -1.55 3.00 -2.19 -0.69 2.01 -0.91 -2.31 -2.00 -2.43 -0.89 -3.00 -2.36 -0.90 -4.00 -2.23 -0.93 4.00 -2.20 -1.04 3.01 -1.91 -2.30 2.01 -1.89 -2.29 1.01 -1.90 -2.29 -2.00 -3.42 -0.89 -3.00 -3.44 -0.89 -4.00 -3.35 -0.90 3.01 -2.89 -2.29 2.01 -2.88 -2.30 -2.01 1.30 2.63 -3.00 1.13 2.92 -3.06 0.99 3.49 -0.98 0.13 2.96 -1.96 0.14 2.98 -2.98 0.13 2.95 -3.99 0.13 2.95 -1.61 -0.79 3.00 -2.92 -0.86 2.99 -5.00 -0.74 2.61 -6.23 -0.83 2.56 -2.00 0.58 0.60 -5.57 0.03 -6.61 2.93 -0.79 3.99 -2.00 -0.06 -1.40 -4.98 0.90 0.90 3.24 1.45 3.25 3.73 0.19 2.04 -1.99 -0.86 -1.10 -3.99 -0.12 0.78 -4.84 0.09 1.46 3.54 0.38 3.79 3.14 1.16 3.12 2.27 1.11 3.08 2.98 -0.77 1.42 -3.71 -0.82 1.67 -4.71 -0.82 1.68 -3.40 0.26 2.26 -3.89 -0.21 3.57 3.74 0.10 3.23 3.30 0.64 3.03 2.29 0.59 3.04 3.00 -1.05 0.03 2.00 -0.09 -1.78 -2.09 0.50 1.32 -2.15 0.99 1.92 -2.39 0.91 2.27 -1.91 1.74 2.98 -2.64 1.28 3.44 -3.35 -0.79 5.70 2.75 1.78 3.68 1.92 1.87 3.47 2.55 1.06 3.05 3.11 0.22 2.88 2.35 -0.05 3.03 4.00 -0.87 0.36 3.09 0.54 -0.63 2.00 0.90 -0.96 -1.95 0.86 1.57 -2.52 0.93 1.81 -1.59 1.18 2.96 -1.58 1.70 3.58 -2.19 1.77 3.82 1.40 1.85 3.86 1.64 1.14 3.39 0.92 1.00 3.36 2.62 0.16 2.71 2.20 -0.58 2.89 4.00 -1.18 -0.26 4.00 0.67 0.68 3.00 0.62 0.63 -1.77 0.27 1.59 -2.54 0.29 1.74 -0.61 0.73 3.55 -1.43 0.95 3.60 -0.66 1.85 4.43 1.21 1.02 3.83 1.22 0.94 3.23 1.14 0.26 3.16 1.53 -0.43 2.99 2.18 -0.91 2.75 5.00 1.62 3.05 3.12 -1.46 -0.32 2.01 -1.04 -1.01 2.00 -0.34 0.70 -1.42 -0.14 1.68 -1.67 0.26 2.01 -1.64 0.54 2.63 -1.40 0.11 3.58 0.90 3.26 3.81 1.18 0.14 3.78 1.46 1.15 3.01 1.01 0.22 2.98 1.99 0.11 2.71 3.55 0.53 2.73 2.83 1.68 2.07 2.18 2.26 1.88 3.25 0.49 3.02 1.00 -2.03 -0.60 -0.16 -0.04 2.12 -0.67 0.55 2.70 -1.34 0.24 2.87 2.02 2.26 3.80 1.70 2.05 3.67 1.13 1.86 3.58 0.64 1.38 3.32 0.95 0.91 2.75 0.54 0.72 2.48 1.80 1.15 2.06 2.55 1.04 1.89 1.80 1.32 1.58 0.95 1.34 1.60 0.07 1.47 1.64 0.26 0.36 2.91 -0.81 0.06 2.75 -1.51 0.39 2.99 2.30 1.20 3.74 1.47 1.16 3.69 1.08 0.96 3.61 0.29 0.75 3.52 0.60 0.07 3.01 0.29 -0.06 2.58 1.16 0.25 2.22 2.36 0.44 1.54 1.63 0.60 1.49 0.07 -0.02 2.70 0.37 -0.14 3.09 -0.70 -0.40 2.99 -1.32 0.00 3.12 1.80 0.36 3.79 1.24 0.27 3.72 0.81 0.03 3.64 0.23 -0.14 3.56 0.23 -0.78 3.12 -0.21 -0.86 3.00 2.01 -0.47 2.01 2.28 -0.25 1.47 -1.78 -1.00 1.18 0.63 -1.02 2.96 -0.77 -1.06 2.72 -0.46 -1.01 3.16 -0.90 -0.77 3.10 1.67 -0.67 3.79 0.68 -0.55 3.79 0.42 -0.81 3.69 0.28 -1.12 3.55 -0.26 -1.43 3.28 0.44 -1.40 3.05 1.56 -1.34 2.28 2.18 -1.19 1.51 1.52 -1.06 1.44 -1.12 -1.75 1.21 -0.93 -1.60 2.06 1.10 -1.95 3.16 -0.27 -1.97 3.04 -0.37 -1.77 3.18 -1.03 -1.70 3.13 -2.02 -1.75 3.11 0.68 -1.59 3.79 1.29 -2.10 3.58 0.28 -2.09 3.58 -0.59 -2.14 3.54 -1.17 -2.28 3.39 1.28 -2.19 2.58 2.18 -2.14 1.55 1.72 -2.02 1.39 1.47 -1.61 1.25 -2.00 -1.04 1.00 -2.72 -1.06 1.82 -0.21 -2.71 1.19 -0.56 -2.31 2.01 -3.52 -0.99 2.84 1.13 -2.28 3.27 0.41 -2.88 3.20 -0.34 -2.73 3.18 -1.14 -2.71 3.14 -1.36 -2.49 3.20 0.86 -2.37 3.96 1.16 -3.05 3.63 0.18 -3.06 3.62 -0.64 -3.11 3.58 -1.27 -3.18 3.51 0.14 -2.92 3.46 0.89 -3.16 2.33 2.23 -2.74 1.32 1.90 -2.16 1.21 1.04 -2.00 1.35 2.40 -2.25 1.16 -2.00 -2.00 1.48 -2.86 -1.87 1.95 -1.98 -1.95 2.38 -3.26 -2.08 1.89 -3.89 -1.93 2.58 -0.34 -3.15 3.56 0.60 -3.41 3.41 -0.14 -3.60 3.22 -0.83 -3.48 3.32 0.10 -2.50 4.63 -0.36 -2.54 5.03 -1.07 -2.72 4.98 -0.02 -4.00 3.69 -2.69 -3.06 4.35 -3.96 -2.86 4.82 -0.44 -3.82 3.93 2.53 -3.69 2.04 3.08 -2.43 2.06 2.10 -2.48 1.99 1.31 -2.65 2.01 2.60 -3.17 1.21 2.00 -1.21 1.70 -2.00 -3.00 1.61 -0.89 -1.81 4.19 -1.78 -2.66 3.05 -2.54 -2.78 3.13 -3.34 -2.83 3.14 0.41 -4.12 3.84 -0.01 -4.52 3.32 -0.60 -4.57 4.08 3.12 -3.46 2.03 5.00 -2.49 1.62 4.00 -2.38 1.67 3.00 -2.38 1.67 2.00 -2.12 1.70 -2.00 -0.94 0.04 -2.00 -1.58 2.01 -1.96 -2.32 4.96 -1.86 -2.98 3.48 -2.60 -3.41 3.25 6.00 -3.48 1.63 5.00 -3.43 1.65 4.00 -3.36 1.67 3.00 -3.24 1.70 2.00 -2.78 1.51 -2.00 -1.72 0.22 -2.00 -1.46 2.34 -2.96 -2.60 3.57 -2.98 -3.29 4.99 5.00 -4.36 1.67 4.00 -4.25 1.70 3.00 -3.83 1.57 2.00 -1.10 1.58 1.00 -2.13 0.71 -2.00 -2.79 -0.82 -0.64 -2.75 6.00 -2.82 -3.74 4.03 -3.05 -4.12 4.93 5.00 -5.24 1.70 4.00 -4.87 1.59 2.19 -2.69 4.00 1.29 -2.70 4.00 -2.00 -2.72 -1.38 -0.65 -3.74 6.00 -1.60 -3.73 6.00 4.19 -3.74 4.0