# vtk DataFile Version 2.0
VTK from Matlab
ASCII
DATASET STRUCTURED_GRID
DIMENSIONS 3753 1 1
POINTS 3753 float
7.00 28.00 7.00 14.00 37.00 7.00 15.00 37.00 7.00 16.00 37.00 7.00 17.00 37.00 7.00 18.00 37.00 7.00 19.00 37.00 7.00 12.00 38.00 7.00 13.00 38.00 7.00 14.00 38.00 7.00 15.00 38.00 7.00 16.00 38.00 7.00 17.00 38.00 7.00 18.00 38.00 7.00 20.00 38.00 7.00 12.00 39.00 7.00 13.00 39.00 7.00 14.00 39.00 7.00 15.00 39.00 7.00 16.00 39.00 7.00 17.00 39.00 7.00 18.00 39.00 7.00 19.00 39.00 7.00 20.00 39.00 7.00 12.00 40.00 7.00 13.00 40.00 7.00 14.00 40.00 7.00 15.00 40.00 7.00 16.00 40.00 7.00 17.00 40.00 7.00 18.00 40.00 7.00 19.00 40.00 7.00 20.00 40.00 7.00 21.00 40.00 7.00 11.00 41.00 7.00 12.00 41.00 7.00 13.00 41.00 7.00 14.00 41.00 7.00 15.00 41.00 7.00 16.00 41.00 7.00 17.00 41.00 7.00 18.00 41.00 7.00 19.00 41.00 7.00 20.00 41.00 7.00 21.00 41.00 7.00 12.00 42.00 7.00 13.00 42.00 7.00 14.00 42.00 7.00 15.00 42.00 7.00 16.00 42.00 7.00 17.00 42.00 7.00 18.00 42.00 7.00 19.00 42.00 7.00 20.00 42.00 7.00 21.00 42.00 7.00 12.00 43.00 7.00 13.00 43.00 7.00 14.00 43.00 7.00 15.00 43.00 7.00 16.00 43.00 7.00 17.00 43.00 7.00 18.00 43.00 7.00 19.00 43.00 7.00 20.00 43.00 7.00 21.00 43.00 7.00 11.00 44.00 7.00 12.00 44.00 7.00 14.00 44.00 7.00 18.00 44.00 7.00 19.00 44.00 7.00 20.00 44.00 7.00 21.00 44.00 7.00 11.00 45.00 7.00 12.00 45.00 7.00 13.00 45.00 7.00 15.00 45.00 7.00 16.00 45.00 7.00 17.00 45.00 7.00 18.00 45.00 7.00 19.00 45.00 7.00 20.00 45.00 7.00 11.00 46.00 7.00 12.00 46.00 7.00 13.00 46.00 7.00 14.00 46.00 7.00 15.00 46.00 7.00 16.00 46.00 7.00 17.00 46.00 7.00 18.00 46.00 7.00 19.00 46.00 7.00 13.00 47.00 7.00 14.00 47.00 7.00 15.00 47.00 7.00 17.00 47.00 7.00 14.00 48.00 7.00 14.00 23.00 8.00 18.00 23.00 8.00 14.00 24.00 8.00 15.00 24.00 8.00 16.00 24.00 8.00 17.00 24.00 8.00 18.00 24.00 8.00 19.00 24.00 8.00 12.00 25.00 8.00 13.00 25.00 8.00 14.00 25.00 8.00 15.00 25.00 8.00 16.00 25.00 8.00 17.00 25.00 8.00 18.00 25.00 8.00 19.00 25.00 8.00 20.00 25.00 8.00 22.00 25.00 8.00 12.00 26.00 8.00 13.00 26.00 8.00 14.00 26.00 8.00 15.00 26.00 8.00 16.00 26.00 8.00 17.00 26.00 8.00 18.00 26.00 8.00 19.00 26.00 8.00 9.00 27.00 8.00 10.00 27.00 8.00 13.00 27.00 8.00 14.00 27.00 8.00 15.00 27.00 8.00 16.00 27.00 8.00 17.00 27.00 8.00 18.00 27.00 8.00 19.00 27.00 8.00 6.00 28.00 8.00 7.00 28.00 8.00 8.00 28.00 8.00 9.00 28.00 8.00 10.00 28.00 8.00 13.00 28.00 8.00 14.00 28.00 8.00 15.00 28.00 8.00 16.00 28.00 8.00 17.00 28.00 8.00 18.00 28.00 8.00 8.00 29.00 8.00 13.00 29.00 8.00 14.00 29.00 8.00 15.00 29.00 8.00 16.00 29.00 8.00 17.00 29.00 8.00 18.00 29.00 8.00 14.00 30.00 8.00 15.00 30.00 8.00 16.00 30.00 8.00 17.00 30.00 8.00 18.00 30.00 8.00 15.00 31.00 8.00 16.00 31.00 8.00 17.00 31.00 8.00 14.00 36.00 8.00 15.00 36.00 8.00 16.00 36.00 8.00 17.00 36.00 8.00 18.00 36.00 8.00 20.00 36.00 8.00 12.00 37.00 8.00 13.00 37.00 8.00 14.00 37.00 8.00 15.00 37.00 8.00 16.00 37.00 8.00 17.00 37.00 8.00 18.00 37.00 8.00 19.00 37.00 8.00 20.00 37.00 8.00 21.00 37.00 8.00 12.00 38.00 8.00 13.00 38.00 8.00 14.00 38.00 8.00 15.00 38.00 8.00 16.00 38.00 8.00 17.00 38.00 8.00 18.00 38.00 8.00 19.00 38.00 8.00 20.00 38.00 8.00 21.00 38.00 8.00 11.00 39.00 8.00 12.00 39.00 8.00 13.00 39.00 8.00 14.00 39.00 8.00 15.00 39.00 8.00 16.00 39.00 8.00 17.00 39.00 8.00 18.00 39.00 8.00 19.00 39.00 8.00 20.00 39.00 8.00 21.00 39.00 8.00 22.00 39.00 8.00 11.00 40.00 8.00 12.00 40.00 8.00 13.00 40.00 8.00 14.00 40.00 8.00 15.00 40.00 8.00 16.00 40.00 8.00 17.00 40.00 8.00 18.00 40.00 8.00 19.00 40.00 8.00 20.00 40.00 8.00 21.00 40.00 8.00 10.00 41.00 8.00 11.00 41.00 8.00 12.00 41.00 8.00 13.00 41.00 8.00 14.00 41.00 8.00 15.00 41.00 8.00 16.00 41.00 8.00 17.00 41.00 8.00 18.00 41.00 8.00 19.00 41.00 8.00 20.00 41.00 8.00 21.00 41.00 8.00 22.00 41.00 8.00 10.00 42.00 8.00 11.00 42.00 8.00 12.00 42.00 8.00 13.00 42.00 8.00 14.00 42.00 8.00 15.00 42.00 8.00 16.00 42.00 8.00 17.00 42.00 8.00 18.00 42.00 8.00 19.00 42.00 8.00 20.00 42.00 8.00 21.00 42.00 8.00 22.00 42.00 8.00 23.00 42.00 8.00 11.00 43.00 8.00 12.00 43.00 8.00 13.00 43.00 8.00 14.00 43.00 8.00 15.00 43.00 8.00 16.00 43.00 8.00 17.00 43.00 8.00 18.00 43.00 8.00 19.00 43.00 8.00 20.00 43.00 8.00 21.00 43.00 8.00 23.00 43.00 8.00 9.00 44.00 8.00 11.00 44.00 8.00 12.00 44.00 8.00 13.00 44.00 8.00 14.00 44.00 8.00 15.00 44.00 8.00 16.00 44.00 8.00 17.00 44.00 8.00 18.00 44.00 8.00 19.00 44.00 8.00 20.00 44.00 8.00 21.00 44.00 8.00 22.00 44.00 8.00 9.00 45.00 8.00 10.00 45.00 8.00 11.00 45.00 8.00 12.00 45.00 8.00 13.00 45.00 8.00 14.00 45.00 8.00 15.00 45.00 8.00 16.00 45.00 8.00 17.00 45.00 8.00 18.00 45.00 8.00 19.00 45.00 8.00 20.00 45.00 8.00 21.00 45.00 8.00 22.00 45.00 8.00 10.00 46.00 8.00 11.00 46.00 8.00 12.00 46.00 8.00 13.00 46.00 8.00 14.00 46.00 8.00 15.00 46.00 8.00 16.00 46.00 8.00 17.00 46.00 8.00 18.00 46.00 8.00 19.00 46.00 8.00 20.00 46.00 8.00 12.00 47.00 8.00 13.00 47.00 8.00 14.00 47.00 8.00 15.00 47.00 8.00 16.00 47.00 8.00 17.00 47.00 8.00 18.00 47.00 8.00 19.00 47.00 8.00 14.00 48.00 8.00 15.00 48.00 8.00 16.00 48.00 8.00 17.00 48.00 8.00 15.00 49.00 8.00 15.00 18.00 9.00 16.00 18.00 9.00 14.00 19.00 9.00 15.00 19.00 9.00 16.00 19.00 9.00 17.00 19.00 9.00 14.00 20.00 9.00 15.00 20.00 9.00 16.00 20.00 9.00 17.00 20.00 9.00 18.00 20.00 9.00 14.00 21.00 9.00 15.00 21.00 9.00 16.00 21.00 9.00 17.00 21.00 9.00 18.00 21.00 9.00 19.00 21.00 9.00 13.00 22.00 9.00 14.00 22.00 9.00 15.00 22.00 9.00 16.00 22.00 9.00 17.00 22.00 9.00 18.00 22.00 9.00 19.00 22.00 9.00 20.00 22.00 9.00 13.00 23.00 9.00 14.00 23.00 9.00 15.00 23.00 9.00 16.00 23.00 9.00 17.00 23.00 9.00 18.00 23.00 9.00 19.00 23.00 9.00 20.00 23.00 9.00 21.00 23.00 9.00 13.00 24.00 9.00 14.00 24.00 9.00 15.00 24.00 9.00 16.00 24.00 9.00 17.00 24.00 9.00 18.00 24.00 9.00 19.00 24.00 9.00 20.00 24.00 9.00 21.00 24.00 9.00 13.00 25.00 9.00 14.00 25.00 9.00 15.00 25.00 9.00 16.00 25.00 9.00 17.00 25.00 9.00 18.00 25.00 9.00 19.00 25.00 9.00 20.00 25.00 9.00 21.00 25.00 9.00 22.00 25.00 9.00 12.00 26.00 9.00 13.00 26.00 9.00 14.00 26.00 9.00 15.00 26.00 9.00 16.00 26.00 9.00 17.00 26.00 9.00 18.00 26.00 9.00 19.00 26.00 9.00 20.00 26.00 9.00 21.00 26.00 9.00 22.00 26.00 9.00 10.00 27.00 9.00 12.00 27.00 9.00 13.00 27.00 9.00 14.00 27.00 9.00 15.00 27.00 9.00 16.00 27.00 9.00 17.00 27.00 9.00 18.00 27.00 9.00 19.00 27.00 9.00 20.00 27.00 9.00 21.00 27.00 9.00 22.00 27.00 9.00 9.00 28.00 9.00 10.00 28.00 9.00 11.00 28.00 9.00 13.00 28.00 9.00 14.00 28.00 9.00 15.00 28.00 9.00 16.00 28.00 9.00 17.00 28.00 9.00 18.00 28.00 9.00 19.00 28.00 9.00 20.00 28.00 9.00 22.00 28.00 9.00 8.00 29.00 9.00 10.00 29.00 9.00 12.00 29.00 9.00 13.00 29.00 9.00 14.00 29.00 9.00 15.00 29.00 9.00 16.00 29.00 9.00 17.00 29.00 9.00 18.00 29.00 9.00 19.00 29.00 9.00 20.00 29.00 9.00 10.00 30.00 9.00 12.00 30.00 9.00 13.00 30.00 9.00 14.00 30.00 9.00 15.00 30.00 9.00 16.00 30.00 9.00 17.00 30.00 9.00 18.00 30.00 9.00 19.00 30.00 9.00 20.00 30.00 9.00 23.00 30.00 9.00 13.00 31.00 9.00 14.00 31.00 9.00 15.00 31.00 9.00 16.00 31.00 9.00 17.00 31.00 9.00 18.00 31.00 9.00 19.00 31.00 9.00 20.00 31.00 9.00 13.00 32.00 9.00 14.00 32.00 9.00 15.00 32.00 9.00 16.00 32.00 9.00 17.00 32.00 9.00 18.00 32.00 9.00 19.00 32.00 9.00 14.00 35.00 9.00 15.00 35.00 9.00 16.00 35.00 9.00 17.00 35.00 9.00 18.00 35.00 9.00 19.00 35.00 9.00 12.00 36.00 9.00 13.00 36.00 9.00 14.00 36.00 9.00 15.00 36.00 9.00 16.00 36.00 9.00 17.00 36.00 9.00 18.00 36.00 9.00 19.00 36.00 9.00 20.00 36.00 9.00 12.00 37.00 9.00 13.00 37.00 9.00 14.00 37.00 9.00 15.00 37.00 9.00 16.00 37.00 9.00 17.00 37.00 9.00 18.00 37.00 9.00 19.00 37.00 9.00 20.00 37.00 9.00 11.00 38.00 9.00 12.00 38.00 9.00 13.00 38.00 9.00 14.00 38.00 9.00 15.00 38.00 9.00 16.00 38.00 9.00 17.00 38.00 9.00 18.00 38.00 9.00 19.00 38.00 9.00 20.00 38.00 9.00 21.00 38.00 9.00 22.00 38.00 9.00 10.00 39.00 9.00 11.00 39.00 9.00 12.00 39.00 9.00 13.00 39.00 9.00 14.00 39.00 9.00 15.00 39.00 9.00 16.00 39.00 9.00 17.00 39.00 9.00 18.00 39.00 9.00 19.00 39.00 9.00 20.00 39.00 9.00 21.00 39.00 9.00 22.00 39.00 9.00 10.00 40.00 9.00 11.00 40.00 9.00 12.00 40.00 9.00 13.00 40.00 9.00 14.00 40.00 9.00 15.00 40.00 9.00 16.00 40.00 9.00 17.00 40.00 9.00 18.00 40.00 9.00 19.00 40.00 9.00 20.00 40.00 9.00 21.00 40.00 9.00 22.00 40.00 9.00 10.00 41.00 9.00 11.00 41.00 9.00 12.00 41.00 9.00 13.00 41.00 9.00 14.00 41.00 9.00 15.00 41.00 9.00 16.00 41.00 9.00 17.00 41.00 9.00 18.00 41.00 9.00 19.00 41.00 9.00 20.00 41.00 9.00 21.00 41.00 9.00 22.00 41.00 9.00 23.00 41.00 9.00 10.00 42.00 9.00 11.00 42.00 9.00 12.00 42.00 9.00 13.00 42.00 9.00 14.00 42.00 9.00 15.00 42.00 9.00 16.00 42.00 9.00 17.00 42.00 9.00 18.00 42.00 9.00 19.00 42.00 9.00 20.00 42.00 9.00 21.00 42.00 9.00 22.00 42.00 9.00 23.00 42.00 9.00 10.00 43.00 9.00 11.00 43.00 9.00 12.00 43.00 9.00 13.00 43.00 9.00 14.00 43.00 9.00 15.00 43.00 9.00 16.00 43.00 9.00 17.00 43.00 9.00 18.00 43.00 9.00 19.00 43.00 9.00 20.00 43.00 9.00 21.00 43.00 9.00 22.00 43.00 9.00 23.00 43.00 9.00 10.00 44.00 9.00 11.00 44.00 9.00 12.00 44.00 9.00 13.00 44.00 9.00 14.00 44.00 9.00 15.00 44.00 9.00 16.00 44.00 9.00 17.00 44.00 9.00 18.00 44.00 9.00 19.00 44.00 9.00 20.00 44.00 9.00 21.00 44.00 9.00 22.00 44.00 9.00 10.00 45.00 9.00 11.00 45.00 9.00 12.00 45.00 9.00 13.00 45.00 9.00 14.00 45.00 9.00 15.00 45.00 9.00 16.00 45.00 9.00 17.00 45.00 9.00 18.00 45.00 9.00 19.00 45.00 9.00 20.00 45.00 9.00 21.00 45.00 9.00 22.00 45.00 9.00 10.00 46.00 9.00 11.00 46.00 9.00 12.00 46.00 9.00 13.00 46.00 9.00 14.00 46.00 9.00 15.00 46.00 9.00 16.00 46.00 9.00 17.00 46.00 9.00 18.00 46.00 9.00 19.00 46.00 9.00 20.00 46.00 9.00 21.00 46.00 9.00 22.00 46.00 9.00 11.00 47.00 9.00 12.00 47.00 9.00 13.00 47.00 9.00 14.00 47.00 9.00 15.00 47.00 9.00 16.00 47.00 9.00 17.00 47.00 9.00 18.00 47.00 9.00 19.00 47.00 9.00 20.00 47.00 9.00 21.00 47.00 9.00 13.00 48.00 9.00 14.00 48.00 9.00 15.00 48.00 9.00 16.00 48.00 9.00 17.00 48.00 9.00 18.00 48.00 9.00 19.00 48.00 9.00 15.00 49.00 9.00 15.00 
[...]
POINT_DATA 3753
VECTORS vector_field float
0.04 0.09 -2.00 -8.58 -5.74 13.00 2.88 6.50 15.03 1.88 6.49 15.03 12.00 -8.08 8.68 10.04 -7.00 5.91 9.15 -7.00 5.50 -3.96 -7.89 -3.67 -4.98 -7.25 -3.96 -11.00 -6.01 4.48 2.88 5.50 15.03 1.88 5.49 15.03 0.88 5.49 15.03 -0.12 5.49 15.03 7.46 -9.20 10.33 -4.12 -8.22 -3.84 -5.18 -9.00 -3.14 3.83 4.46 15.04 2.88 4.49 15.03 1.88 4.50 15.03 0.88 4.49 15.03 -0.12 4.49 15.03 -1.12 4.49 15.03 8.86 -9.99 9.03 -9.00 -6.33 5.00 4.76 3.42 15.04 3.87 3.49 15.03 2.88 3.49 15.03 1.88 3.50 15.03 0.88 3.49 15.03 -0.12 3.49 15.03 -1.12 3.49 15.03 -2.12 3.49 15.03 7.17 -10.00 3.97 -4.05 -1.17 -6.00 -9.00 -6.30 4.55 4.83 2.46 15.04 3.88 2.49 15.03 2.88 2.50 15.03 1.88 2.49 15.03 0.88 2.49 15.03 -0.12 2.49 15.03 -1.12 2.49 15.03 -2.12 2.49 15.03 8.00 -11.76 7.29 -3.60 -2.12 -6.00 4.88 1.49 15.03 3.88 1.49 15.03 2.88 1.50 15.03 1.88 1.50 15.03 0.88 1.49 15.03 -0.12 1.49 15.03 -1.12 1.49 15.03 -2.12 1.49 15.03 -3.12 1.49 15.03 -9.00 -8.27 4.63 4.88 0.49 15.03 3.88 0.49 15.03 2.88 0.50 15.03 1.88 0.50 15.03 0.88 0.50 15.03 -0.12 0.50 15.03 -1.12 0.50 15.03 -2.12 0.50 15.03 -3.12 0.49 15.03 -4.94 -1.71 -5.42 -6.75 -0.24 -4.89 3.88 -0.51 15.03 12.70 -1.08 4.18 9.49 -3.72 -6.00 -2.13 -0.51 15.03 -3.12 -0.50 15.03 -9.10 -6.04 3.22 -6.75 -4.31 1.76 -11.71 -5.17 2.97 -11.20 -11.26 -1.30 13.17 -1.62 10.13 0.88 -1.50 15.03 -0.13 -1.51 15.03 -1.13 -1.51 15.03 6.27 -7.70 -5.98 -9.30 -5.50 -3.01 -6.19 -4.86 -6.00 -4.22 -8.33 -6.00 -6.05 -16.00 -3.28 2.77 -2.57 15.04 1.87 -2.51 15.03 0.88 -2.51 15.03 -0.12 -2.50 15.03 10.54 -5.01 3.26 -6.00 -7.07 -6.00 3.85 -3.53 15.03 2.64 -3.65 15.05 0.81 -3.55 15.04 3.70 -4.61 15.05 -6.98 -5.01 6.92 6.52 -4.00 3.48 -6.00 -6.73 4.86 -4.00 -10.06 9.07 6.21 -9.17 10.00 6.00 -7.25 5.72 6.00 -4.24 2.96 7.06 -3.29 5.07 -4.06 -4.30 1.87 -5.00 -4.31 1.81 -5.57 -7.23 8.11 0.05 -15.25 13.00 5.91 -6.76 10.58 7.43 -6.00 3.36 8.09 -4.48 5.51 7.05 -4.25 5.01 6.04 -4.23 4.95 6.00 -0.27 4.65 -4.07 -5.19 1.81 -5.01 -5.30 1.83 -1.77 -7.08 11.88 7.09 -11.09 10.00 6.91 -7.12 9.27 7.74 -7.00 3.51 8.06 -5.29 5.08 7.04 -5.23 4.95 -1.07 3.00 -4.22 -2.87 0.95 -3.01 -5.04 -6.27 1.84 -6.00 -9.74 4.87 3.96 -15.26 13.00 8.50 -8.00 3.38 9.09 -6.50 5.68 8.05 -6.28 5.07 7.02 -6.11 4.70 1.90 2.00 -4.17 0.06 0.06 -3.00 -0.96 0.07 -3.00 -1.07 2.00 -4.20 -2.07 2.00 -4.20 -5.07 -7.21 1.82 -6.08 -7.19 1.81 -4.00 -14.61 9.11 10.00 -8.13 5.66 9.07 -7.33 5.15 8.05 -7.25 5.02 -0.03 1.00 -4.46 -5.10 -8.18 1.82 -6.00 -8.29 1.73 -7.00 -8.41 1.77 11.34 -5.00 9.47 9.05 -8.26 5.03 8.09 -8.32 5.22 -6.00 -9.27 1.76 2.16 -3.69 9.73 10.10 -9.38 5.31 9.16 -9.14 5.27 10.72 -4.91 5.80 11.07 -10.14 4.97 10.11 -10.27 5.23 11.25 -7.70 9.09 3.80 7.45 14.04 0.08 -8.49 10.61 13.00 -7.34 7.68 12.00 -6.99 7.60 11.00 -7.24 5.34 9.00 -7.32 7.68 -6.00 -5.75 12.00 -6.96 -3.98 12.93 -8.58 -5.74 12.00 2.88 6.50 14.03 1.88 6.50 14.03 0.88 6.49 14.03 11.00 -8.09 7.57 9.04 -7.00 4.81 9.00 -7.67 7.32 7.18 -7.04 3.03 -7.07 -8.00 -0.05 -6.62 -4.16 13.00 3.86 5.48 14.03 2.88 5.50 14.03 1.88 5.50 14.03 0.88 5.49 14.03 -0.12 5.49 14.03 -1.12 5.49 14.03 9.00 -9.45 7.64 7.16 -8.03 3.01 -8.00 -4.71 3.84 -0.74 1.97 14.00 4.81 4.45 14.04 3.87 4.49 14.03 2.88 4.49 14.03 1.88 4.50 14.03 0.88 4.49 14.03 -0.12 4.49 14.03 -1.12 4.49 14.03 9.00 -10.46 7.65 7.14 -9.06 3.01 7.00 -5.82 2.47 -8.00 -6.05 3.99 5.74 3.41 14.04 4.85 3.47 14.03 3.88 3.49 14.03 2.88 3.50 14.03 1.88 3.50 14.03 0.88 3.49 14.03 -0.12 3.49 14.03 -1.13 3.49 14.03 -2.13 3.49 14.03 7.18 -10.03 3.02 -7.00 -6.84 3.98 -8.00 -6.82 3.97 5.73 2.40 14.04 4.84 2.47 14.04 3.88 2.49 14.03 2.88 2.50 14.03 1.88 2.49 14.03 0.88 2.49 14.03 -0.12 2.49 14.03 -1.12 2.49 14.03 -2.13 2.49 14.03 7.21 -11.02 3.04 7.00 -6.84 2.71 -7.00 -10.80 5.61 -8.00 -10.09 4.77 5.70 1.39 14.05 4.86 1.48 14.03 3.88 1.49 14.03 2.88 1.50 14.03 1.88 1.49 14.03 0.88 1.49 14.03 -0.12 1.49 14.03 -1.12 1.49 14.03 -2.12 1.49 14.03 8.00 -10.24 2.84 4.29 -2.33 -6.53 3.55 -2.35 -6.43 -8.00 -9.74 4.29 5.77 0.43 14.04 4.87 0.49 14.03 3.88 0.49 14.03 2.88 0.50 14.03 1.88 0.50 14.03 0.88 0.49 14.03 -0.12 0.49 14.03 -1.12 0.49 14.03 -2.12 0.49 14.03 -3.12 0.49 14.03 3.65 -3.48 -6.21 -0.77 -4.26 -7.00 6.88 -0.51 14.03 5.88 -0.51 14.03 4.88 -0.51 14.03 3.88 -0.51 14.03 2.88 -0.50 14.03 1.88 -0.50 14.03 0.88 -0.50 14.03 -0.12 -0.50 14.03 -1.12 -0.51 14.03 -2.12 -0.51 14.03 -3.12 -0.51 14.03 -4.12 -0.50 14.03 -3.57 1.08 -0.41 -8.00 -2.34 5.54 6.88 -1.51 14.03 5.88 -1.51 14.03 4.88 -1.51 14.03 3.88 -1.51 14.03 2.88 -1.50 14.03 1.88 -1.50 14.03 0.88 -1.50 14.03 -0.12 -1.50 14.03 -1.12 -1.50 14.03 -2.12 -1.50 14.03 -3.12 -1.50 14.03 -4.12 -1.51 14.03 -9.00 -5.71 -0.38 -4.66 -5.73 -7.00 5.88 -2.51 14.03 4.88 -2.51 14.03 3.88 -2.51 14.03 2.88 -2.50 14.03 1.88 -2.50 14.03 0.88 -2.50 14.03 -0.12 -2.50 14.03 -1.12 -2.50 14.03 -2.12 -2.50 14.03 5.88 -3.51 14.03 4.88 -3.51 14.03 3.88 -3.51 14.03 2.88 -3.51 14.03 1.88 -3.51 14.03 0.88 -3.51 14.03 -0.12 -3.50 14.03 -1.12 -3.51 14.03 3.87 -4.51 14.03 2.77 -4.57 14.04 -6.74 -10.24 -7.00 0.88 -4.51 14.03 2.59 -5.69 14.06 -2.99 0.60 10.94 -4.65 -1.03 13.00 -6.00 -1.77 3.85 -7.00 -1.75 3.84 -5.00 -5.06 8.11 3.01 -5.39 9.56 -6.00 -2.73 3.86 -3.01 -1.43 10.94 -5.00 -6.06 8.12 3.01 -6.33 9.50 6.00 -2.22 3.82 -6.00 -3.71 3.85 -7.98 -3.15 5.83 -4.67 -4.03 13.00 5.92 -5.85 9.01 6.00 -2.66 3.00 5.00 -1.50 1.91 -5.00 -2.59 1.51 -6.00 -4.70 3.84 -4.00 -8.06 8.08 -5.01 -8.23 10.05 5.97 -6.81 8.96 6.00 -3.50 3.00 5.99 -2.94 2.78 6.89 0.91 8.69 -5.00 -3.30 1.21 -6.00 -5.72 3.86 -4.00 -9.06 8.09 -5.05 -9.29 10.36 4.77 -4.62 9.59 6.27 -4.01 3.00 7.09 -2.50 4.65 6.05 -2.26 4.01 5.04 -2.24 3.98 -6.27 -4.00 2.12 -6.00 -6.70 3.86 -3.00 -15.02 10.60 3.82 -11.35 10.93 5.60 -3.70 7.94 8.00 -3.77 4.82 7.07 -3.32 4.13 6.06 -3.28 4.07 5.04 -3.24 3.98 -6.75 -4.95 2.32 -4.09 -5.10 7.35 -1.60 -14.73 12.00 4.88 -5.74 9.59 3.07 -2.24 8.07 8.04 -4.25 3.96 7.04 -4.22 3.95 6.03 -4.19 3.87 5.12 -4.38 4.38 6.39 -1.66 7.73 -6.00 -4.52 2.20 -7.00 -5.47 2.16 -6.29 -3.62 6.19 5.98 -7.22 9.89 4.17 -3.88 8.18 9.00 -6.06 4.68 8.11 -5.48 4.79 7.15 -5.37 4.46 7.27 -2.66 8.00 7.04 -0.87 4.02 6.00 -0.94 3.71 -1.91 4.50 -6.02 -5.98 -5.92 1.52 -7.53 -2.78 4.81 -5.89 -3.98 5.97 2.00 -0.66 8.77 1.34 -0.78 8.70 9.99 -3.81 8.40 8.99 -3.89 8.17 8.70 -3.65 8.09 8.00 -1.86 3.96 7.00 -1.88 3.63 6.00 -1.83 3.65 -2.03 -0.14 -4.00 -2.00 2.00 -5.23 -3.12 2.00 -5.15 -8.01 -4.94 3.76 -1.92 -3.20 7.54 2.01 -1.65 8.75 1.26 -1.74 8.71 1.15 -2.09 8.59 7.06 -2.67 6.63 9.24 -2.81 4.13 8.00 -2.88 3.63 6.00 0.66 1.62 -3.01 1.00 -1.01 -2.07 1.00 -5.20 -4.11 1.00 -5.16 -6.00 -7.24 0.91 -7.14 -8.10 1.88 2.02 -2.65 8.75 1.52 -2.86 8.68 2.18 -3.81 8.12 10.54 -3.92 5.37 9.00 -3.83 3.64 8.00 -3.60 3.98 -2.06 -0.00 -5.21 -4.07 -0.00 -5.20 -5.89 -1.77 -4.06 2.85 -3.62 8.78 2.62 -3.91 8.66 8.27 -4.55 6.55 12.00 -4.71 5.04 10.00 -4.68 3.75 9.00 -4.54 3.97 8.00 -1.35 1.61 5.00 -1.45 1.60 -5.83 -2.64 -4.10 -7.58 -6.81 4.92 8.83 -5.32 6.64 9.20 -5.22 6.40 9.57 -4.94 6.20 10.99 -5.43 4.43 9.00 -2.43 1.61 8.00 -2.45 1.60 -5.00 -2.00 -5.16 7.88 -6.44 7.49 9.50 -6.18 6.43 8.72 -6.12 6.39 11.00 -2.96 2.18 10.00 -3.32 1.62 9.00 -3.34 1.62 1.02 -7.48 9.56 12.93 -6.05 7.82 12.29 -5.04 2.34 11.10 -5.15 2.06 10.00 -4.06 0.71 9.10 -5.21 2.12 -0.83 5.19 13.00 -6.39 -2.90 12.00 3.83 7.46 13.04 2.70 7.39 13.05 -0.97 -8.48 9.57 12.00 -7.38 6.66 11.00 -7.33 5.87 9.18 -6.26 2.26 9.00 -7.32 6.68 -0.74 3.99 13.00 -5.58 -2.85 13.00 3.88 6.49 13.03 2.88 6.50 13.03 1.88 6.50 13.03 0.88 6.49 13.03 -0.12 6.49 13.03 -1.12 6.49 13.03 9.00 -8.33 6.68 6.75 5.42 13.04 -0.73 2.96 13.00 4.84 5.47 13.04 3.87 5.49 13.03 2.88 5.50 13.03 1.88 5.50 13.03 0.88 5.49 13.03 -0.12 5.49 13.03 -1.12 5.49 13.03 6.00 -4.01 12.32 8.00 -4.73 1.93 6.20 -8.06 2.07 -7.00 -5.82 3.20 6.74 4.41 13.04 5.77 4.43 13.04 4.83 4.46 13.04 3.87 4.49 13.03 2.88 4.49 13.03 1.88 4.50 13.03 0.88 4.49 13.03 -0.12 4.49 13.03 -1.12 4.49 13.03 -2.14 4.49 13.03 7.30 -7.58 9.00 6.22 -9.01 1.98 -7.00 -5.85 2.87 6.70 3.38 13.05 5.74 3.41 13.04 4.84 3.47 13.03 3.88 3.49 13.03 2.88 3.50 13.03 1.88 3.50 13.03 0.88 3.49 13.03 -0.12 3.49 13.03 -1.13 3.49 13.03 -2.13 3.49 13.03 -3.13 3.49 13.03 6.22 -10.04 2.07 -7.00 -6.81 2.86 6.68 2.37 13.05 5.72 2.40 13.04 4.81 2.45 13.04 3.88 2.49 13.03 2.88 2.50 13.03 1.88 2.49 13.03 0.88 2.49 13.03 -0.12 2.49 13.03 -1.12 2.49 13.03 -2.13 2.49 13.03 -3.13 2.49 13.03 6.82 -11.00 2.09 6.02 -7.20 1.67 -7.00 -7.66 2.82 6.68 1.37 13.05 5.72 1.40 13.04 4.82 1.46 13.04 3.88 1.49 13.03 2.88 1.50 13.03 1.88 1.49 13.03 0.88 1.49 13.03 -0.12 1.49 13.03 -1.12 1.49 13.03 -2.13 1.49 13.03 -3.13 1.49 13.03 7.01 -8.59 1.91 6.01 -7.87 1.73 -7.00 -9.12 3.01 6.72 0.40 13.04 5.77 0.43 13.04 4.86 0.48 13.03 3.88 0.49 13.03 2.88 0.50 13.03 1.88 0.50 13.03 0.88 0.49 13.03 -0.12 0.49 13.03 -1.12 0.49 13.03 -2.12 0.49 13.03 -3.13 0.49 13.03 -4.12 0.49 13.03 3.57 -3.26 -7.70 -7.00 -10.01 2.98 6.83 -0.54 13.04 5.86 -0.52 13.03 4.88 -0.51 13.03 3.88 -0.51 13.03 2.88 -0.50 13.03 1.88 -0.50 13.03 0.88 -0.50 13.03 -0.12 -0.51 13.03 -1.12 -0.51 13.03 -2.12 -0.51 13.03 -3.12 -0.51 13.03 -4.12 -0.51 13.03 -7.00 -11.50 3.10 6.88 -1.51 13.03 5.88 -1.51 13.03 4.88 -1.51 13.03 3.88 -1.51 13.03 2.88 -1.50 13.03 1.88 -1.50 13.03 0.88 -1.50 13.03 -0.12 -1.50 13.03 -1.12 -1.50 13.03 -2.12 -1.51 13.03 -3.12 -1.51 13.03 -4.12 -1.51 13.03 -5.27 -0.00 2.68 6.88 -2.51 13.03 5.88 -2.51 13.03 4.88 -2.51 13.03 3.88 -2.51 13.03 2.88 -2.50 13.03 1.88 -2.50 13.03 0.88 -2.50 13.03 -0.12 -2.50 13.03 -1.12 -2.50 13.03 -2.12 -2.50 13.03 -3.12 -2.50 13.03 -4.12 -2.51 13.03 6.87 -3.51 13.03 5.88 -3.51 13.03 4.88 -3.51 13.03 3.88 -3.51 13.03 2.88 -3.51 13.03 1.88 -3.50 13.03 0.88 -3.50 13.03 -0.12 -3.50 13.03 -1.12 -3.50 13.03 -2.12 -3.50 13.03 -3.12 -3.50 13.03 4.88 -4.51 13.03 3.87 -4.51 13.03 2.88 -4.51 13.03 1.88 -4.50 13.03 0.88 -4.50 13.03 -0.12 -4.50 13.03 -1.12 -4.51 13.03 -5.61 -9.00 -7.06 -4.00 -1.08 7.23 3.00 -1.41 8.51 -4.00 -2.08 7.22 -3.78 2.12 11.96 5.99 -0.79 8.01 -6.00 0.29 2.79 0.54 -3.69 11.00 -4.32 0.02 12.00 5.99 -1.79 8.01 2.01 -3.29 8.45 -5.00 -0.70 2.80 -6.00 -0.79 2.86 -2.96 -0.56 12.00 -3.99 0.55 9.99 5.99 -2.79 8.02 4.92 -2.79 8.00 4.04 0.36 7.39 -5.00 -1.74 2.84 -6.00 -1.78 2.86 -4.00 -5.06 7.06 -3.95 -1.47 12.00 3.01 -5.36 8.60 4.87 -0.66 7.61 5.00 -0.38 2.00 -5.00 -2.68 2.83 -6.00 -2.72 2.86 -3.37 -3.00 12.00 -5.00 -6.06 7.42 3.01 -6.37 8.56 7.00 -2.36 5.00 -5.04 -3.00 2.79 -6.00 -3.70 2.88 -4.00 -7.05 7.46 -4.00 -2.44 9.98 3.00 -7.33 8.53 7.00 -3.00 6.42 5.83 -2.00 1.99 -4.77 -2.24 5.36 -6.92 -4.41 4.49 -4.00 -8.06 7.11 -4.71 -5.03 12.00 4.42 -3.31 8.60 5.24 -1.63 6.94 7.00 -2.87 3.86 6.00 -1.55 3.96 -6.78 -3.02 1.66 -6.39 -4.51 5.81 7.94 -7.75 8.02 -3.03 -3.24 9.48 1.85 0.32 7.36 2.79 -0.65 7.02 7.09 -2.50 3.62 6.05 -2.28 3.02 5.05 -2.26 3.04 -7.00 -3.85 1.47 -5.17 -2.49 5.21 -1.40 -1.44 7.75 1.94 -0.89 7.91 2.19 0.11 7.09 4.11 -0.30 6.50 7.13 -3.43 3.56 7.00 -0.87 7.10 5.99 -0.89 7.12 -7.00 -4.46 1.48 -6.05 -2.11 4.99 2.43 1.15 7.72 2.26 0.59 7.47 2.26 -0.34 7.07 5.66 -0.86 6.20 8.43 -1.45 7.00 6.89 -0.09 7.33 5.76 0.28 7.25 -5.92 -1.86 4.07 -4.62 -2.47 5.11 2.05 0.30 7.77 1.26 0.26 7.72 2.40 -0.88 7.07 3.58 -1.19 6.22 5.83 -0.79 5.68 5.90 -0.34 5.91 5.24 0.04 5.35 -5.03 -2.27 4.39 2.61 -0.79 7.80 1.95 -0.64 7.77 1.48 -0.85 7.68 0.60 -0.90 7.67 1.74 -1.92 6.98 3.74 -1.92 6.06 5.31 -1.39 5.49 7.93 -1.84 4.24 -5.70 -2.90 2.93 -4.49 -2.97 3.40 -5.15 -3.01 3.66 -3.81 -2.62 5.43 2.89 -1.63 7.78 1.89 -1.62 7.77 1.36 -1.78 7.70 0.59 -1.89 7.67 0.68 -2.52 7.31 2.60 -2.89 6.28 5.98 -1.98 5.19 8.00 -2.34 3.50 6.00 -1.63 2.99 -6.19 -3.85 2.98 -5.44 -3.93 3.51 -4.36 -3.60 5.03 2.83 -2.61 7.78 1.90 -2.62 7.76 1.36 -2.78 7.70 0.77 -2.96 7.64 0.72 -3.55 7.29 4.77 -3.61 5.73 9.00 -3.36 4.02 7.67 -2.72 3.41 6.00 -2.33 2.92 -2.06 -0.00 -6.21 -6.00 0.00 -2.00 -8.33 -4.39 2.62 -5.26 -4.37 4.54 2.76 -3.60 7.79 1.84 -3.59 7.77 1.49 -3.84 7.68 1.18 -4.09 7.58 4.07 -4.50 6.37 7.62 -3.85 5.11 8.93 -3.79 3.50 6.00 -1.43 0.61 -2.12 -0.22 -6.84 -2.89 -0.02 -7.00 -7.64 -3.42 3.88 -8.15 -3.99 4.69 -0.93 -4.62 7.17 1.65 -4.53 7.78 1.81 -4.97 7.64 1.31 -5.11 7.57 1.05 -5.21 7.46 9.00 -2.33 1.51 8.00 -2.42 0.61 6.00 -2.44 0.60 5.00 -2.45 0.60 -1.95 -2.00 -6.51 -2.95 -2.00 -6.56 -4.01 -2.00 -6.44 -2.78 -5.76 6.67 1.24 -4.51 8.77 0.21 -4.51 8.74 -0.46 -4.50 9.03 11.32 -2.02 1.27 10.01 -2.02 0.71 9.00 -2.63 0.85 8.00 -4.11 0.73 6.00 -3.44 0.61 5.00 -3.44 0.61 -3.94 -3.00 -6.59 1.99 -5.50 8.52 1.04 -5.48 8.58 13.97 -4.35 3.23 13.00 -4.25 5.70 12.00 -4.39 5.66 11.00 -4.08 5.69 9.30 -3.00 1.64 8.10 -3.05 0.95 -7.55 -2.72 10.00 3.83 9.46 12.04 0.03 -6.48 8.57 1.70 9.39 12.05 0.81 9.46 12.04 10.36 -4.00 2.20 9.18 -4.24 1.28 8.18 -4.25 1.28 -1.86 6.22 12.00 3.71 8.40 12.05 2.84 8.47 12.04 1.70 8.39 12.05 12.00 -6.08 5.69 11.00 -6.16 5.70 9.35 -5.00 2.35 9.00 -6.28 5.69 -0.69 4.92 12.00 -7.00 -3.91 10.46 3.87 7.49 12.03 2.87 7.49 12.03 1.87 7.49 12.03 0.87 7.49 12.03 -0.13 7.49 12.03 -1.30 7.39 12.05 8.20 -5.69 7.98 0.15 4.19 12.00 -0.84 4.20 12.00 4.86 6.48 12.03 3.88 6.49 12.03 2.88 6.50 12.03 1.88 6.50 12.03 0.88 6.50 12.03 -0.12 6.49 12.03 -1.12 6.49 12.03 8.15 -4.73 8.00 7.96 -6.99 1.19 7.00 -3.71 0.95 7.72 5.40 12.04 6.73 5.41 12.04 5.77 5.43 12.04 4.83 5.46 12.04 3.87 5.49 12.03 2.88 5.50 12.03 1.88 5.50 12.03 0.88 5.49 12.03 -0.12 5.49 12.03 -1.12 5.49 12.03 -2.14 5.49 12.03 -3.14 5.49 12.03 7.01 -4.65 0.63 7.72 4.40 12.04 6.73 4.40 12.04 5.76 4.42 12.04 4.82 4.46 12.04 3.86 4.48 12.03 2.88 4.49 12.03 1.88 4.50 12.03 0.88 4.49 12.03 -0.12 4.49 12.03 -1.13 4.49 12.03 -2.14 4.49 12.03 -3.13 4.49 12.03 7.01 -5.04 0.79 -6.00 -6.81 2.20 7.70 3.38 12.05 6.69 3.38 12.05 5.72 3.40 12.04 4.79 3.44 12.04 3.88 3.49 12.03 2.88 3.49 12.03 1.88 3.50 12.03 0.88 3.49 12.03 -0.13 3.49 12.03 -1.13 3.49 12.03 -2.13 3.49 12.03 -3.13 3.49 12.03 -4.13 3.49 12.03 6.03 -6.26 0.96 -6.00 -7.82 2.20 7.66 2.36 12.05 6.67 2.37 12.05 5.70 2.39 12.05 4.78 2.43 12.04 3.88 2.49 12.03 2.88 2.50 12.03 1.88 2.49 12.03 0.88 2.49 12.03 -0.12 2.49 12.03 -1.13 2.49 12.03 -2.13 2.49 12.03 -3.13 2.49 12.03 -4.13 2.49 12.03 6.01 -7.04 0.72 8.67 1.37 12.05 7.67 1.37 12.05 6.67 1.37 12.05 5.70 1.39 12.05 4.78 1.44 12.04 3.88 1.49 12.03 2.88 1.50 12.03 1.88 1.49 12.03 0.88 1.49 12.03 -0.12 1.49 12.03 -1.12 1.49 12.03 -2.13 1.49 12.03 -3.13 1.49 12.03 -4.13 1.49 12.03 6.01 -7.87 0.68 7.69 0.38 12.05 6.71 0.39 12.05 5.74 0.41 12.04 4.83 0.47 12.04 3.88 0.49 12.03 2.88 0.50 12.03 1.88 0.49 12.03 0.88 0.49 12.03 -0.12 0.49 12.03 -1.12 0.49 12.03 -2.13 0.49 12.03 -3.13 0.49 12.03 -4.13 0.49 12.03 -5.00 -10.14 6.33 7.74 -0.59 12.04 6.80 -0.56 12.04 5.81 -0.55 12.04 4.87 -0.51 12.03 3.88 -0.51 12.03 2.88 -0.50 12.03 1.88 -0.50 12.03 0.88 -0.51 12.03 -0.12 -0.51 12.03 -1.12 -0.51 12.03 -2.12 -0.51 12.03 -3.12 -0.51 12.03 -4.13 -0.51 12.03 5.62 -1.06 8.00 7.81 -1.55 12.04 6.87 -1.51 12.03 5.88 -1.51 12.03 4.88 -1.51 12.03 3.88 -1.51 12.03 2.88 -1.50 12.03 1.88 -1.50 12.03 0.88 -1.50 12.03 -0.12 -1.50 12.03 -1.12 -1.51 12.03 -2.12 -1.51 12.03 -3.12 -1.51 12.03 -4.13 -1.51 12.03 6.88 -2.51 12.03 5.88 -2.51 12.03 4.88 -2.51 12.03 3.88 -2.51 12.03 2.88 -2.50 12.03 1.88 -2.50 12.03 0.88 -2.50 12.03 -0.12 -2.50 12.03 -1.12 -2.50 12.03 -2.12 -2.51 12.03 -3.12 -2.51 12.03 -4.12 -2.51 12.03 6.88 -3.51 12.03 5.88 -3.51 12.03 4.88 -3.51 12.03 3.88 -3.51 12.03 2.88 -3.50 12.03 1.88 -3.50 12.03 0.88 -3.50 12.03 -0.12 -3.50 12.03 -1.12 -3.50 12.03 -2.12 -3.50 12.03 -3.12 -3.50 12.03 4.88 -4.51 12.03 3.88 -4.51 12.03 2.88 -4.50 12.03 1.88 -4.50 12.03 0.88 -4.50 12.03 -0.12 -4.50 12.03 -1.12 -4.50 12.03 -2.12 -4.50 12.03 3.87 -5.51 12.03 2.88 -5.51 12.03 1.88 -5.51 12.03 0.88 -5.50 12.03 -0.12 -5.50 12.03 -1.12 -5.51 12.03 -4.00 -0.08 6.25 -4.00 -1.07 6.17 6.00 0.21 7.02 2.01 -1.43 7.59 -4.16 0.79 5.18 -3.00 -2.07 6.36 -2.93 1.58 11.00 6.14 1.22 9.94 2.02 -2.32 7.63 -5.00 0.23 1.83 -6.20 1.23 4.93 -4.00 -3.06 6.08 3.00 -3.00 8.54 2.02 -3.12 7.33 4.00 -1.69 6.63 -5.00 -0.78 1.86 -6.00 -0.78 1.87 -4.00 -4.06 6.05 -3.93 0.49 9.42 5.95 -2.76 7.02 4.93 -2.79 6.98 3.82 0.61 6.46 -5.00 -1.70 1.85 -6.00 -1.72 1.86 -4.00 -5.08 6.25 -3.96 -1.56 11.00 3.01 -5.31 7.50 4.88 -0.16 6.30 -5.00 -2.38 1.85 -6.00 -2.77 1.99 -6.18 -1.37 5.07 -4.21 -2.89 11.00 4.81 -1.42 7.25 5.24 -0.11 6.00 -6.98 -2.98 3.81 -3.70 0.20 5.71 -3.45 -1.89 8.77 2.89 0.88 6.48 5.09 -0.63 5.85 -4.62 0.65 5.89 -5.23 -1.80 4.24 -2.98 0.21 5.54 -0.13 1.58 7.97 2.15 1.71 6.13 2.14 0.79 6.05 5.38 -3.05 0.82 6.00 -2.73 2.58 -5.13 -1.39 4.22 1.83 3.24 6.81 1.62 3.07 6.68 2.08 1.37 6.13 8.06 1.00 6.00 6.10 -2.35 2.06 5.12 -2.52 2.80 -4.24 -1.06 4.16 2.00 2.27 6.80 1.93 2.00 6.63 1.94 0.88 6.20 5.65 0.46 5.10 4.60 0.89 5.02 -2.59 -0.38 5.77 2.07 0.95 6.61 2.04 0.30 6.77 1.47 0.16 6.69 -6.00 -1.43 4.02 -7.02 -1.77 4.06 1.78 -2.59 6.78 1.12 -2.67 6.73 0.66 -2.92 6.66 0.13 -3.06 6.60 0.07 -3.63 6.15 2.83 -3.41 5.12 -5.01 -2.33 4.00 -6.02 -2.31 4.00 -7.06 -2.33 4.01 -7.92 -2.61 4.21 -0.83 -3.98 6.16 -0.86 -3.65 6.14 1.68 -3.56 6.79 1.06 -3.65 6.73 0.75 -3.95 6.65 0.40 -4.15 6.52 -0.09 -4.30 6.35 4.36 -4.08 4.50 5.22 -3.45 4.01 -5.03 -4.39 1.44 -6.01 -3.35 4.00 -7.06 -3.30 4.01 -5.82 -3.87 4.25 -1.59 -4.93 5.96 -0.92 -4.56 6.24 0.35 -4.34 6.50 1.54 -4.83 6.81 1.08 -5.03 6.65 0.38 -5.12 6.55 -3.06 -3.73 7.97 6.18 -4.16 4.06 7.00 -2.80 1.56 6.00 -2.47 0.75 -4.00 -3.59 1.70 -5.00 -4.00 4.09 -6.00 -4.66 0.70 -7.01 -4.25 4.00 -3.60 -5.07 5.44 -2.25 -5.72 5.92 0.98 -4.52 7.50 0.10 -4.50 7.63 -0.89 -4.50 7.63 -1.88 -4.50 7.64 -2.46 -4.46 8.11 -3.35 -4.54 8.03 8.99 -4.56 4.17 6.00 -3.45 0.44 -4.00 -2.28 0.91 -4.87 -4.40 6.08 3.08 -5.49 7.61 -0.11 -6.54 6.31 1.03 -5.48 7.57 0.03 -5.48 7.57 -0.97 -5.48 7.57 -1.97 -5.48 7.57 -2.93 -5.49 7.60 -3.58 -5.49 7.98 9.00 -4.08 4.67 7.16 -3.23 0.20 6.10 -3.21 0.12 5.10 -3.16 0.08 -5.00 -3.73 2.12 4.08 -6.49 7.61 -1.04 -5.19 12.51 2.03 -6.48 7.57 3.81 9.45 11.04 2.73 9.41 11.04 1.71 9.40 11.05 0.71 9.40 11.05 -0.26 9.41 11.04 -3.90 -6.50 7.63 9.00 -5.36 4.67 8.00 -4.82 4.08 5.11 -4.20 0.12 0.78 -6.02 12.54 0.14 6.20 11.00 -0.83 6.16 11.00 4.83 8.46 11.04 3.71 8.39 11.05 2.83 8.46 11.04 1.84 8.47 11.03 0.84 8.47 11.04 -0.22 8.44 11.04 -1.28 8.40 11.04 8.18 -4.61 6.99 8.00 -4.30 4.08 5.14 -5.19 0.14 -0.03 -7.18 12.51 -0.86 5.20 11.00 4.87 7.49 11.03 3.88 7.49 11.03 2.88 7.49 11.03 1.87 7.49 11.03 0.87 7.49 11.03 -0.13 7.49 11.03 -1.18 7.46 11.04 8.36 -4.92 7.00 7.18 -4.65 7.00 0.15 4.18 11.00 -0.85 4.19 11.00 4.87 6.49 11.03 3.88 6.50 11.03 2.88 6.50 11.03 1.88 6.50 11.03 0.88 6.50 11.03 -0.12 6.49 11.03 -1.12 6.49 11.03 -2.13 6.49 11.03 5.10 -3.11 10.00 1.14 3.17 11.00 6.63 5.34 11.06 5.76 5.42 11.04 4.83 5.46 11.04 3.87 5.49 11.03 2.88 5.50 11.03 1.88 5.50 11.03 0.88 5.49 11.03 -0.12 5.49 11.03 -1.13 5.49 11.03 -2.13 5.49 11.03 -3.14 5.49 11.03 6.34 -6.68 7.00 2.15 2.19 11.00 7.32 4.19 11.09 6.71 4.39 11.05 5.75 4.42 11.04 4.80 4.45 11.04 3.85 4.48 11.03 2.88 4.49 11.03 1.88 4.50 11.03 0.88 4.49 11.03 -0.13 4.49 11.03 -1.14 4.49 11.03 -2.13 4.49 11.03 -3.13 4.49 11.03 -4.13 4.49 11.03 6.02 -5.06 -0.11 8.64 3.35 11.05 7.68 3.37 11.05 6.68 3.38 11.05 5.71 3.39 11.05 4.78 3.43 11.04 3.85 3.47 11.03 2.88 3.49 11.03 1.88 3.50 11.03 0.88 3.49 11.03 -0.13 3.49 11.03 -1.13 3.49 11.03 -2.13 3.49 11.03 -3.13 3.49 11.03 -4.13 3.49 11.03 -5.13 3.49 11.03 5.01 -5.89 -0.30 8.62 2.33 11.06 7.64 2.35 11.05 6.66 2.36 11.05 5.68 2.38 11.05 4.75 2.42 11.04 3.85 2.48 11.03 2.88 2.50 11.03 1.88 2.49 11.03 0.88 2.49 11.03 -0.13 2.49 11.03 -1.13 2.49 11.03 -2.13 2.49 11.03 -3.13 2.49 11.03 -4.13 2.49 11.03 -5.13 2.49 11.03 4.56 1.92 7.00 8.59 1.32 11.06 7.62 1.34 11.06 6.64 1.35 11.05 5.68 1.38 11.05 4.75 1.42 11.04 3.85 1.47 11.03 2.88 1.50 11.03 1.88 1.49 11.03 0.88 1.49 11.03 -0.12 1.49 11.03 -1.13 1.49 11.03 -2.13 1.49 11.03 -3.13 1.49 11.03 -4.13 1.49 11.03 6.00 0.40 5.50 -1.76 -0.96 8.97 7.63 0.34 11.06 6.65 0.35 11.05 5.71 0.39 11.05 4.79 0.44 11.04 3.87 0.49 11.03 2.88 0.49 11.03 1.88 0.49 11.03 0.88 0.49 11.03 -0.12 0.49 11.03 -1.12 0.49 11.03 -2.13 0.49 11.03 -3.13 0.49 11.03 -4.13 0.49 11.03 6.06 -0.01 6.66 4.00 -0.40 5.23 3.00 -0.37 5.32 2.02 -0.27 5.16 -5.03 -0.67 5.00 7.74 -0.59 11.04 6.74 -0.59 11.04